/*--------------------------------*- C++ -*----------------------------------*\
  =========                 |
  \\      /  F ield         | OpenFOAM: The Open Source CFD Toolbox
   \\    /   O peration     | Website:  https://openfoam.org
    \\  /    A nd           | Version:  12
     \\/     M anipulation  |
\*---------------------------------------------------------------------------*/
FoamFile
{
    format      ascii;
    class       volScalarField;
    location    "1";
    object      epsilon;
}
// * * * * * * * * * * * * * * * * * * * * * * * * * * * * * * * * * * * * * //

dimensions      [0 2 -3 0 0 0 0];

internalField   nonuniform List<scalar> 
1600
(
4.96856e-05
0.000207689
0.00038293
0.000526543
0.000639406
0.000727698
0.000796488
0.000849681
0.0008905
0.000921746
0.000945906
0.000965135
0.000981263
0.000995795
0.00100995
0.00102472
0.00104085
0.00105898
0.00107953
0.00110279
0.00112884
0.00115747
0.00118815
0.00121983
0.00125102
0.00128093
0.00131412
0.00134446
0.00136458
0.00137333
0.00136428
0.00133064
0.00126858
0.00117429
0.00104529
0.000880862
0.000682027
0.000454259
0.00021623
4.93213e-05
0.000214074
0.00021876
0.000307476
0.000388423
0.000453828
0.00050491
0.000544123
0.000573893
0.000596403
0.000613539
0.000626841
0.00063759
0.000646795
0.000655215
0.000663401
0.000671727
0.000680424
0.000689602
0.000699258
0.00070929
0.000719491
0.000729561
0.000739114
0.000747717
0.000755166
0.000761707
0.000767769
0.000770986
0.000771531
0.000766726
0.000754628
0.000733445
0.000701242
0.000656205
0.000596848
0.00052137
0.000430257
0.000324926
0.000221087
0.000201978
0.000423092
0.000313116
0.000364579
0.000425084
0.000477576
0.000519965
0.000552852
0.000577716
0.000596176
0.000609782
0.000620026
0.000627983
0.000634474
0.000640105
0.000645308
0.000650367
0.000655457
0.00066067
0.000666036
0.000671546
0.000677165
0.000682855
0.000688579
0.000694321
0.000700128
0.000706089
0.000712141
0.000717146
0.000719756
0.000719474
0.00071359
0.000700183
0.000677225
0.000643043
0.000596673
0.000538297
0.000468163
0.00038776
0.000316632
0.000361835
0.000614756
0.000404414
0.000429405
0.000476571
0.000520898
0.000557645
0.000586627
0.000608835
0.000625563
0.000638096
0.000647465
0.000654597
0.000660235
0.000664938
0.00066911
0.000673033
0.000676897
0.00068083
0.000684927
0.000689276
0.000693977
0.000699173
0.000705003
0.000711628
0.000719207
0.000727779
0.000737045
0.000746308
0.000754534
0.000758957
0.000759274
0.000751653
0.000733664
0.000703499
0.000660403
0.000604856
0.000538312
0.0004636
0.000401769
0.000484895
0.000779971
0.000482506
0.000486876
0.000524473
0.000563201
0.000596668
0.000623761
0.000644912
0.000661054
0.000673212
0.000682336
0.000689263
0.000694678
0.000699114
0.000702975
0.00070656
0.000710096
0.00071377
0.000717756
0.000722246
0.000727466
0.000733682
0.000741231
0.000750458
0.000761628
0.000774827
0.000789792
0.000805774
0.000821396
0.00083393
0.000839779
0.00083791
0.000822887
0.000792416
0.000745868
0.000684565
0.000611561
0.000531742
0.000468843
0.000575207
0.000919965
0.00054779
0.00053622
0.000566513
0.000601136
0.000632213
0.000657975
0.000678462
0.000694341
0.000706463
0.000715678
0.000722752
0.000728335
0.000732952
0.00073702
0.000740874
0.000744793
0.00074904
0.000753886
0.000759645
0.000766696
0.000775491
0.000786553
0.000800423
0.000817573
0.000838256
0.000862297
0.000888823
0.000916048
0.000940892
0.000956657
0.000961414
0.000949796
0.000915668
0.000858375
0.000780777
0.000689206
0.000592944
0.000520905
0.000640262
0.00103763
0.000602214
0.000577956
0.000602595
0.000634164
0.000663498
0.00068833
0.000708414
0.000724229
0.0007365
0.000745997
0.000753439
0.000759454
0.000764574
0.000769248
0.000773858
0.00077876
0.000784314
0.000790919
0.000799055
0.000809306
0.000822378
0.000839092
0.000860333
0.000886942
0.000919526
0.000958159
0.00100198
0.00104875
0.00109427
0.00113002
0.00114557
0.00114074
0.00110033
0.00102208
0.000911876
0.0007831
0.000654401
0.00056328
0.000686046
0.00113588
0.000647569
0.000612926
0.000633158
0.000662456
0.00069055
0.000714766
0.000734651
0.000750547
0.000763095
0.000773006
0.000780975
0.000787628
0.00079352
0.000799145
0.000804961
0.000811422
0.000819023
0.000828346
0.0008401
0.000855176
0.000874665
0.000899873
0.000932275
0.000973401
0.0010246
0.00108662
0.00115898
0.00123916
0.00132128
0.00139457
0.0014343
0.00144214
0.00139547
0.00128115
0.00111129
0.000913605
0.00072627
0.000600746
0.000710648
0.00121739
0.000685258
0.000642029
0.000658793
0.000686405
0.000713646
0.0007375
0.000757351
0.000773446
0.000786367
0.000796797
0.000805422
0.000812887
0.00081979
0.000826692
0.00083415
0.000842758
0.0008532
0.000866306
0.000883128
0.000905
0.000933611
0.000971042
0.00101976
0.00108254
0.00116218
0.00126096
0.00137967
0.00151616
0.00166244
0.0018018
0.0018935
0.00192383
0.0018774
0.0017064
0.00143377
0.00111359
0.000822358
0.000637347
0.000714966
0.00128448
0.000716458
0.000666101
0.000680109
0.000706472
0.000733152
0.000756842
0.00077679
0.000793178
0.000806552
0.000817585
0.000826977
0.000835409
0.00084354
0.000852028
0.000861564
0.000872929
0.000887059
0.000905137
0.000928687
0.000959696
0.00100074
0.00105509
0.00112683
0.00122084
0.00134252
0.00149712
0.00168822
0.00191506
0.00216625
0.00241566
0.00259702
0.00266616
0.00263554
0.00238872
0.00196238
0.00144015
0.000960421
0.000672892
0.000703503
0.0013392
0.000742178
0.000685893
0.000697691
0.000723124
0.000749457
0.000773128
0.000793274
0.000810027
0.000823914
0.000835619
0.000845868
0.0008554
0.000864957
0.000875323
0.000887362
0.000902098
0.000920803
0.000945123
0.000977229
0.00102001
0.0010773
0.00115414
0.00125705
0.00139421
0.00157522
0.00181012
0.00210685
0.00246523
0.0028654
0.00326507
0.00356837
0.00369198
0.00369541
0.00338519
0.00278613
0.00199634
0.00118412
0.000694626
0.000639068
0.00138338
0.000763295
0.000702071
0.000712076
0.000736807
0.00076294
0.000786691
0.000807102
0.000824267
0.00083871
0.000851134
0.00086231
0.00087305
0.000884204
0.000896709
0.000911647
0.000930343
0.000954491
0.00098633
0.00102886
0.00108617
0.00116377
0.00126912
0.00141215
0.00160561
0.00186472
0.00220522
0.00263758
0.00315224
0.00370617
0.00423198
0.00463714
0.00482129
0.00486274
0.00459481
0.00392686
0.00291352
0.00165214
0.000722067
0.000492211
0.00141862
0.000780574
0.000715223
0.000723749
0.000747935
0.000773961
0.000797848
0.000818559
0.000836158
0.000851175
0.000864341
0.000876488
0.000888512
0.000901394
0.000916252
0.000934425
0.000957595
0.000987964
0.00102848
0.00108316
0.00115754
0.00125924
0.00139871
0.00158999
0.00185097
0.00220199
0.00266051
0.00322556
0.00385284
0.00446001
0.0049738
0.00537513
0.00560987
0.00569874
0.00563305
0.00520394
0.00426582
0.00264263
0.000922421
0.000367023
0.00144636
0.000794686
0.000725869
0.000733147
0.000756885
0.000782849
0.000806892
0.000827906
0.000845934
0.000861516
0.000875423
0.00088855
0.000901896
0.000916585
0.00093394
0.000955587
0.000983614
0.00102079
0.00107086
0.001139
0.00123236
0.0013609
0.00153826
0.00178237
0.00211473
0.00255574
0.00311072
0.00374053
0.00435311
0.0048726
0.00531403
0.00571218
0.00603099
0.00626025
0.00635641
0.0063039
0.00584277
0.00448315
0.00177544
0.000440761
0.00146788
0.000806221
0.000734465
0.000740657
0.000763996
0.000789905
0.000814091
0.000835382
0.000853807
0.000869921
0.000884534
0.000898616
0.000913271
0.000929781
0.000949685
0.000974915
0.00100799
0.00105226
0.00111232
0.0011945
0.00130761
0.0014638
0.00167933
0.00197439
0.00236976
0.00287628
0.00346947
0.00406669
0.00458175
0.00503293
0.00551414
0.00598646
0.00640198
0.00681305
0.00710604
0.00722081
0.00719272
0.00662061
0.00412933
0.00130725
0.00148432
0.000815692
0.000741411
0.00074662
0.000769573
0.000795402
0.000819689
0.000841207
0.000859971
0.000876552
0.000891808
0.000906778
0.000922679
0.000940947
0.000963343
0.000992102
0.00103016
0.00108144
0.00115132
0.0012472
0.00137927
0.00156129
0.00181082
0.00214734
0.00258533
0.0031168
0.00368274
0.00418826
0.00461688
0.00508515
0.00562331
0.00614543
0.00668161
0.00723568
0.00777073
0.00811237
0.00823388
0.00821367
0.00720193
0.0038576
0.00149669
0.00082355
0.000747054
0.00075134
0.000773885
0.000799585
0.000823908
0.000845578
0.0008646
0.000881562
0.000897363
0.000913116
0.000930143
0.000950029
0.000974741
0.00100679
0.00104949
0.00110727
0.00118614
0.00129431
0.00144285
0.00164617
0.00192127
0.00228373
0.00273687
0.00324925
0.00373681
0.00414606
0.00454745
0.00504696
0.00561729
0.00617269
0.00680022
0.00756057
0.00832312
0.0089455
0.00920965
0.00927424
0.00900492
0.00719066
0.00150592
0.000830184
0.000751699
0.00075508
0.000777175
0.000802676
0.000826951
0.000848682
0.00086786
0.000885091
0.000901314
0.000917708
0.000935688
0.000956975
0.000983712
0.00101865
0.00106539
0.00112872
0.0012151
0.00133315
0.00149419
0.00171214
0.00200163
0.00237188
0.00281271
0.00327132
0.00368374
0.00403332
0.00441131
0.00494023
0.00551481
0.00609839
0.00680414
0.00770256
0.00879292
0.0097586
0.0101885
0.0102665
0.0100106
0.00956311
0.00151284
0.000835936
0.000755608
0.000758073
0.000779656
0.000804874
0.000829006
0.00085069
0.00086991
0.000887283
0.000903781
0.000920639
0.000939355
0.000961759
0.00099013
0.00102738
0.00107732
0.00114493
0.00123682
0.00136162
0.00153019
0.00175495
0.00204684
0.00240726
0.00281448
0.00322389
0.00356121
0.00384035
0.00421444
0.00474654
0.00530659
0.00589154
0.00665409
0.00771605
0.00909083
0.0105334
0.0112961
0.0114279
0.0111666
0.011488
0.00151818
0.0008411
0.000759009
0.000760523
0.000781519
0.000806361
0.000830247
0.000851771
0.000870903
0.000888272
0.000904879
0.000922006
0.000941211
0.000964398
0.000993936
0.00103283
0.00108496
0.00115532
0.00125041
0.00137841
0.00154914
0.00177257
0.00205553
0.00239653
0.00277387
0.00311948
0.00338004
0.00361226
0.00396645
0.00447431
0.00500338
0.00557296
0.00637008
0.00757566
0.00924316
0.0111891
0.012479
0.0127349
0.0122786
0.0133222
0.00152264
0.000845936
0.000762102
0.000762608
0.000782935
0.000807306
0.000830834
0.000852061
0.000870954
0.000888164
0.000904712
0.000921892
0.000941311
0.000964922
0.00099512
0.00103492
0.00108813
0.00115959
0.00125538
0.0013829
0.00155064
0.00176748
0.00203915
0.0023579
0.00268805
0.00297319
0.00317696
0.00336284
0.00367591
0.00413939
0.00463113
0.00518234
0.00600693
0.00734283
0.00930438
0.0117533
0.0137218
0.0142437
0.0135227
0.0149455
0.00152689
0.000850678
0.000765056
0.000764489
0.000784058
0.000807853
0.000830902
0.000851752
0.000870359
0.000887331
0.000903696
0.00092078
0.000940178
0.000963832
0.000994125
0.00103401
0.00108719
0.00115828
0.00125295
0.00137799
0.0015408
0.00174762
0.00199927
0.00228529
0.00257359
0.00281255
0.00297036
0.00310877
0.00336255
0.0037667
0.00422177
0.0047618
0.00561868
0.00707917
0.00932013
0.01224
0.0149598
0.0158869
0.0149064
0.0165018
0.00153154
0.00085554
0.000768018
0.000766305
0.000785022
0.000808142
0.000830635
0.000850986
0.000869113
0.000885668
0.000901682
0.000918483
0.000937668
0.000961159
0.000991283
0.00103088
0.00108341
0.0011531
0.001245
0.0013648
0.00151826
0.00170955
0.00193827
0.00219348
0.00244566
0.00264945
0.00277502
0.00286975
0.00305534
0.00338885
0.00380656
0.00434539
0.00524276
0.0068196
0.00931542
0.0126815
0.0161642
0.0176602
0.0164669
0.0179811
0.00153724
0.000860716
0.00077113
0.00076818
0.000785953
0.000808306
0.00083013
0.000849864
0.000867442
0.000883492
0.000899044
0.000915407
0.000934154
0.000957152
0.000986627
0.00102525
0.0010762
0.00114325
0.00123071
0.00134331
0.00148552
0.00166014
0.00186556
0.00209135
0.00231246
0.0024908
0.00259787
0.00266184
0.00278433
0.00304044
0.00341793
0.00396217
0.00490579
0.00658686
0.00930328
0.0130933
0.0172845
0.0194868
0.0181701
0.0193957
0.00154465
0.000866394
0.000774522
0.000770226
0.000786971
0.000808475
0.000829549
0.000848607
0.000865568
0.00088105
0.000896069
0.000911907
0.00093009
0.000952404
0.000980942
0.00101816
0.00106693
0.00113054
0.00121262
0.00131696
0.00144691
0.00160417
0.00178663
0.00198506
0.00217924
0.00233872
0.00243771
0.00248891
0.0025682
0.00275256
0.00308492
0.00363155
0.00461382
0.00637173
0.00926184
0.0134488
0.0183031
0.0213247
0.0200212
0.0207676
0.00155446
0.000872761
0.000778317
0.000772552
0.00078819
0.000808785
0.000829066
0.000847411
0.00086373
0.000878632
0.000893106
0.000908397
0.000925964
0.000947492
0.000974919
0.00101047
0.00105668
0.00111636
0.0011925
0.00128807
0.00140546
0.00154556
0.0017061
0.00187931
0.00204946
0.00219331
0.00228946
0.00234102
0.00239984
0.00253723
0.00282258
0.00335759
0.00435493
0.00614867
0.00914935
0.0136358
0.0191935
0.0231324
0.0220022
0.0221081
0.00156745
0.000880007
0.000782627
0.000775267
0.000789731
0.000809379
0.000828879
0.000846519
0.00086224
0.000876618
0.000890615
0.00090542
0.000922415
0.000943163
0.000969433
0.00100321
0.0010467
0.00110225
0.00117227
0.001259
0.00136408
0.00148778
0.00162785
0.00177791
0.00192601
0.002055
0.00214839
0.00220532
0.00225904
0.00237387
0.00262161
0.0031271
0.00410569
0.00588769
0.00894208
0.0136922
0.0199149
0.0248643
0.0241151
0.0234089
0.00158449
0.000888329
0.00078757
0.000778485
0.000791729
0.000810421
0.000829149
0.000846269
0.000861529
0.000875543
0.000889236
0.000903736
0.000920324
0.00094043
0.000965646
0.000997741
0.00103857
0.00109005
0.00115409
0.00123232
0.00132574
0.00143418
0.00155547
0.00168439
0.00181192
0.00192566
0.00201361
0.00207408
0.00212907
0.00223247
0.00245368
0.00291743
0.0038422
0.00556133
0.00860316
0.0135587
0.0203391
0.0264523
0.026369
0.0246927
0.0016066
0.000897927
0.000793267
0.000782349
0.000794371
0.00081217
0.00083022
0.000846905
0.000861993
0.000875963
0.000889681
0.000904211
0.000920758
0.000940645
0.00096527
0.00099604
0.00103451
0.00108224
0.00114078
0.00121121
0.00129397
0.00138859
0.00149298
0.00160282
0.00171121
0.00180924
0.00188848
0.00194773
0.00200286
0.00209684
0.00229467
0.00271179
0.00355513
0.00516616
0.00812342
0.0131865
0.020503
0.0278956
0.028723
0.0259368
0.001635
0.000909012
0.000799863
0.000787059
0.000797956
0.000815065
0.000832733
0.000849283
0.0008645
0.000878807
0.000892982
0.000907994
0.000924932
0.000944984
0.000969426
0.000999615
0.00103686
0.00108237
0.00113672
0.0012005
0.00127394
0.00135662
0.00144635
0.00153942
0.00163043
0.00171291
0.00178115
0.00183468
0.00188593
0.00196929
0.0021428
0.00250898
0.00325658
0.00472582
0.00753535
0.0126171
0.0204843
0.0291064
0.0311568
0.0271499
0.0016712
0.000921788
0.000807558
0.000792952
0.000803027
0.000819923
0.000837856
0.000855022
0.000871181
0.000886695
0.000902243
0.000918677
0.000936953
0.000958107
0.000983242
0.00101351
0.00105002
0.00109376
0.00114559
0.00120581
0.00127405
0.0013482
0.00142637
0.0015056
0.00158171
0.00165006
0.00170708
0.00175269
0.00179723
0.00186888
0.0020176
0.00233216
0.00297963
0.00428732
0.0068937
0.011867
0.0201035
0.0300724
0.0336071
0.0283214
0.00171733
0.000936548
0.000816722
0.000800708
0.000810717
0.000828461
0.000847962
0.000867259
0.000885964
0.000904362
0.000923016
0.000942643
0.000964058
0.000988145
0.00101583
0.00104807
0.00108574
0.00112963
0.00118032
0.00123795
0.00130201
0.00137156
0.00144427
0.00151705
0.00158608
0.00164697
0.00169616
0.00173518
0.00177316
0.00183379
0.00196001
0.00222999
0.00279833
0.00395286
0.00629799
0.0110429
0.0194979
0.0308346
0.036022
0.0294464
0.00177595
0.000953467
0.000828132
0.000811879
0.00082368
0.000844673
0.000868434
0.000892754
0.000917118
0.000941653
0.000966767
0.000993028
0.00102111
0.00105175
0.00108573
0.00112384
0.00116678
0.00121513
0.0012692
0.00132893
0.00139366
0.0014623
0.00153281
0.00160226
0.00166734
0.00172491
0.0017732
0.00181309
0.0018527
0.00191274
0.00203158
0.0022755
0.00278005
0.00382595
0.00599983
0.010431
0.0188307
0.0314601
0.0382686
0.0305412
0.00185408
0.000973913
0.000844029
0.000830687
0.000848963
0.000878243
0.000911802
0.000947223
0.00098371
0.00102114
0.00105973
0.0010999
0.00114218
0.00118721
0.00123566
0.00128821
0.00134545
0.00140781
0.00147541
0.00154798
0.0016247
0.0017042
0.00178452
0.00186305
0.00193696
0.00200392
0.00206324
0.00211702
0.00217312
0.00225056
0.00238426
0.00263588
0.00312254
0.00409538
0.00607762
0.0102236
0.0185208
0.0321151
0.0401605
0.0316239
0.00194977
0.000997835
0.000871171
0.000869544
0.000904615
0.000954071
0.00101059
0.00107132
0.00113506
0.00120138
0.00127027
0.00134202
0.00141709
0.00149606
0.00157955
0.00166817
0.00176247
0.00186285
0.0019693
0.00208122
0.00219753
0.00231656
0.00243627
0.00255427
0.00266834
0.00277697
0.00288065
0.00298309
0.00309365
0.0032314
0.00343099
0.00375323
0.00430182
0.00530444
0.00719466
0.0110314
0.018842
0.0331963
0.0415961
0.0328229
0.00209912
0.00103845
0.000930062
0.000964625
0.00104558
0.00114787
0.00126349
0.00138908
0.00152284
0.0016639
0.001812
0.00196733
0.0021303
0.0023014
0.00248116
0.00267
0.00286839
0.00307671
0.00329483
0.00352104
0.00375331
0.00398896
0.00422569
0.00446088
0.00469348
0.00492284
0.00515204
0.0053866
0.00563938
0.00593037
0.00629627
0.00679985
0.00752677
0.00869901
0.0106123
0.0142705
0.021363
0.0355067
0.042855
0.0335346
0.00226159
0.00112565
0.00109328
0.00125165
0.00147811
0.00174543
0.00204581
0.00237514
0.00272998
0.00310773
0.00350693
0.00392675
0.00436678
0.00482624
0.00530437
0.00579955
0.00631103
0.00683797
0.00738023
0.00793073
0.00848437
0.00903347
0.00957574
0.0101058
0.0106269
0.0111365
0.0116451
0.0121551
0.0126886
0.0132606
0.0139125
0.0147052
0.015678
0.0171025
0.0190223
0.0225585
0.0282826
0.040291
0.0442985
0.0338637
0.00256664
0.00136904
0.00170588
0.00238328
0.00319839
0.00411378
0.0051272
0.00622862
0.00740117
0.00862809
0.0098974
0.0111992
0.0125263
0.0138693
0.0152214
0.0165708
0.0179133
0.0192392
0.0205473
0.0218153
0.0230369
0.0241903
0.0252866
0.026307
0.0272793
0.0281822
0.029061
0.0298837
0.0307164
0.0315325
0.0324174
0.033393
0.0344521
0.0360874
0.037888
0.0411988
0.044094
0.0498065
0.0476319
0.0338898
0.00312142
0.00230968
0.00457795
0.00790389
0.0113432
0.0148727
0.0185472
0.0223301
0.0261425
0.0299061
0.0335736
0.0371096
0.0405018
0.0437255
0.0467813
0.0496411
0.0523203
0.0547871
0.0570496
0.0590675
0.06089
0.0624658
0.0638855
0.0650764
0.0661636
0.0670449
0.0678924
0.0685554
0.0692559
0.0697782
0.0704151
0.0708913
0.0716488
0.0720877
0.0717506
0.0702185
0.0658104
0.058981
0.0505686
0.0320596
0.00221098
0.00373088
0.00588731
0.00792409
0.00987561
0.0116847
0.0133748
0.0149854
0.0165448
0.0180651
0.0195509
0.0210012
0.0224188
0.0238012
0.0251511
0.0264684
0.027748
0.0290026
0.0302134
0.0313825
0.0324944
0.0335611
0.0345641
0.0355218
0.036413
0.0372552
0.0380339
0.0387514
0.0394106
0.0399724
0.0404811
0.0408162
0.0410956
0.0411618
0.0411569
0.041054
0.0406879
0.0396555
0.0372614
0.030086
)
;

boundaryField
{
    movingWall
    {
        type            epsilonWallFunction;
        value           nonuniform List<scalar> 
40
(
0.00221098
0.00373088
0.00588731
0.00792409
0.00987561
0.0116847
0.0133748
0.0149854
0.0165448
0.0180651
0.0195509
0.0210012
0.0224188
0.0238012
0.0251511
0.0264684
0.027748
0.0290026
0.0302134
0.0313825
0.0324944
0.0335611
0.0345641
0.0355218
0.036413
0.0372552
0.0380339
0.0387514
0.0394106
0.0399724
0.0404811
0.0408162
0.0410956
0.0411618
0.0411569
0.041054
0.0406879
0.0396555
0.0372614
0.030086
)
;
    }
    fixedWalls
    {
        type            epsilonWallFunction;
        value           nonuniform List<scalar> 
120
(
4.96856e-05
0.000214074
0.000423092
0.000614756
0.000779971
0.000919965
0.00103763
0.00113588
0.00121739
0.00128448
0.0013392
0.00138338
0.00141862
0.00144636
0.00146788
0.00148432
0.00149669
0.00150592
0.00151284
0.00151818
0.00152264
0.00152689
0.00153154
0.00153724
0.00154465
0.00155446
0.00156745
0.00158449
0.0016066
0.001635
0.0016712
0.00171733
0.00177595
0.00185408
0.00194977
0.00209912
0.00226159
0.00256664
0.00312142
0.00221098
4.93213e-05
0.000201978
0.000361835
0.000484895
0.000575207
0.000640262
0.000686046
0.000710648
0.000714966
0.000703503
0.000639068
0.000492211
0.000367023
0.000440761
0.00130725
0.0038576
0.00719066
0.00956311
0.011488
0.0133222
0.0149455
0.0165018
0.0179811
0.0193957
0.0207676
0.0221081
0.0234089
0.0246927
0.0259368
0.0271499
0.0283214
0.0294464
0.0305412
0.0316239
0.0328229
0.0335346
0.0338637
0.0338898
0.0320596
0.030086
4.96856e-05
0.000207689
0.00038293
0.000526543
0.000639406
0.000727698
0.000796488
0.000849681
0.0008905
0.000921746
0.000945906
0.000965135
0.000981263
0.000995795
0.00100995
0.00102472
0.00104085
0.00105898
0.00107953
0.00110279
0.00112884
0.00115747
0.00118815
0.00121983
0.00125102
0.00128093
0.00131412
0.00134446
0.00136458
0.00137333
0.00136428
0.00133064
0.00126858
0.00117429
0.00104529
0.000880862
0.000682027
0.000454259
0.00021623
4.93213e-05
)
;
    }
    frontAndBack
    {
        type            empty;
    }
}


// ************************************************************************* //
