/*--------------------------------*- C++ -*----------------------------------*\
  =========                 |
  \\      /  F ield         | OpenFOAM: The Open Source CFD Toolbox
   \\    /   O peration     | Website:  https://openfoam.org
    \\  /    A nd           | Version:  12
     \\/     M anipulation  |
\*---------------------------------------------------------------------------*/
FoamFile
{
    format      ascii;
    class       volScalarField;
    location    "1";
    object      k;
}
// * * * * * * * * * * * * * * * * * * * * * * * * * * * * * * * * * * * * * //

dimensions      [0 2 -2 0 0 0 0];

internalField   nonuniform List<scalar> 
1600
(
3.83802e-06
1.60582e-05
2.9618e-05
4.07333e-05
4.94706e-05
5.63081e-05
6.16373e-05
6.57599e-05
6.89249e-05
7.13489e-05
7.32242e-05
7.4718e-05
7.59722e-05
7.7104e-05
7.82086e-05
7.93622e-05
8.06256e-05
8.20464e-05
8.36597e-05
8.5488e-05
8.75374e-05
8.97936e-05
9.22138e-05
9.47165e-05
9.71849e-05
9.95584e-05
0.000102193
0.000104621
0.000106246
0.000106968
0.000106303
0.000103691
9.88415e-05
9.14587e-05
8.13564e-05
6.84932e-05
5.29644e-05
3.52184e-05
1.67287e-05
3.80935e-06
1.65561e-05
0.000102717
0.000169683
0.000216953
0.000251794
0.000278086
0.000298103
0.000313358
0.000324971
0.000333837
0.000340697
0.000346173
0.000350781
0.000354939
0.000358984
0.000363179
0.000367733
0.000372803
0.000378504
0.000384904
0.000392023
0.000399825
0.000408198
0.000416909
0.000425556
0.000433573
0.000440272
0.000445196
0.000447481
0.000447644
0.000442935
0.000432586
0.00041531
0.000389897
0.000355281
0.000310492
0.000254439
0.000185538
0.000100202
1.56109e-05
3.27541e-05
0.00017957
0.000277871
0.000344882
0.000394159
0.000431318
0.000459526
0.000480917
0.00049709
0.000509322
0.000518658
0.000525962
0.000531937
0.000537146
0.000542032
0.000546934
0.000552104
0.000557719
0.000563894
0.000570689
0.000578107
0.000586096
0.000594537
0.000603228
0.00061187
0.000620068
0.000627284
0.00063258
0.00063501
0.000634128
0.000627164
0.000612752
0.000589208
0.000554995
0.000508807
0.00044944
0.000375305
0.000283138
0.000162609
2.79742e-05
4.76268e-05
0.000239041
0.000357312
0.0004364
0.000494581
0.000538659
0.000572285
0.000597898
0.00061733
0.000632056
0.000643286
0.000652017
0.000659063
0.000665078
0.000670576
0.000675948
0.000681483
0.000687385
0.000693787
0.000700764
0.000708339
0.000716482
0.000725109
0.000734057
0.000743063
0.000751722
0.000759406
0.000764843
0.000767207
0.000765294
0.000756239
0.000738222
0.000709323
0.000667909
0.000612723
0.000542654
0.000455956
0.000348306
0.000205071
3.7496e-05
6.04606e-05
0.000286422
0.000419846
0.000508007
0.000572818
0.000622089
0.000659884
0.000688855
0.000710985
0.000727858
0.00074078
0.000750835
0.000758916
0.000765744
0.000771891
0.000777798
0.000783797
0.000790127
0.000796953
0.000804381
0.000812468
0.000821217
0.000830572
0.000840388
0.000850389
0.0008601
0.000868758
0.000874786
0.000877307
0.000874658
0.000863689
0.000842164
0.00080794
0.00075939
0.000695418
0.000615138
0.000516915
0.000396097
0.000235738
4.44969e-05
7.13452e-05
0.000324771
0.000470409
0.000566028
0.000636294
0.000689866
0.000731161
0.00076301
0.000787507
0.000806317
0.000820817
0.000832158
0.000841291
0.000848998
0.000855908
0.000862513
0.000869193
0.000876235
0.000883849
0.000892187
0.000901344
0.000911362
0.000922203
0.000933716
0.000945574
0.000957193
0.000967628
0.000974991
0.000978068
0.000975136
0.000962359
0.000937214
0.000897155
0.000840635
0.000766906
0.000675614
0.000565564
0.000432586
0.000258872
4.95616e-05
8.05012e-05
0.000356081
0.000511802
0.000613767
0.000688732
0.000746038
0.000790399
0.000824802
0.000851436
0.000872038
0.000888044
0.000900657
0.00091089
0.000919578
0.000927408
0.000934932
0.00094259
0.000950728
0.000959618
0.000969466
0.00098042
0.000992552
0.00100583
0.00102008
0.00103487
0.00104946
0.00106267
0.00107225
0.00107634
0.00107356
0.00105886
0.00102956
0.000982524
0.000916278
0.000830861
0.00072737
0.000604902
0.000460764
0.000277153
5.31574e-05
8.81528e-05
0.000381756
0.000545873
0.000653298
0.000732386
0.00079301
0.000840121
0.000876841
0.000905443
0.000927728
0.000945188
0.000959082
0.000970475
0.000980265
0.000989204
0.000997912
0.0010069
0.0010166
0.00102735
0.00103942
0.00105303
0.00106826
0.00108508
0.00110322
0.00112213
0.00114084
0.00115784
0.00117033
0.00117569
0.00117301
0.00115556
0.00112053
0.0010643
0.000985169
0.000884669
0.000765513
0.000626884
0.000474313
0.000289826
5.50908e-05
9.45055e-05
0.000402833
0.000573953
0.000686081
0.000768805
0.000832402
0.000882009
0.000920855
0.000951289
0.000975173
0.000994052
0.00100924
0.00102187
0.00103289
0.00104315
0.00105333
0.00106405
0.00107582
0.00108908
0.00110417
0.00112136
0.00114074
0.00116222
0.00118544
0.00120959
0.0012334
0.00125488
0.0012703
0.0012766
0.00127275
0.00125023
0.0012063
0.00113738
0.00104077
0.000920261
0.000779203
0.000629359
0.000474072
0.000294305
5.54251e-05
9.97383e-05
0.00042011
0.000597057
0.000713221
0.000799146
0.000865411
0.000917288
0.000958096
0.000990244
0.00101565
0.00103592
0.00105243
0.00106636
0.00107876
0.00109055
0.00110251
0.00111538
0.00112975
0.00114618
0.00116509
0.00118677
0.0012113
0.00123848
0.00126774
0.00129796
0.00132736
0.00135326
0.0013702
0.00137606
0.00136751
0.00133554
0.00127895
0.00119551
0.00107995
0.000938604
0.000778582
0.000607851
0.000448287
0.000286473
5.45311e-05
0.000104009
0.000434219
0.000615992
0.000735601
0.000824327
0.000892972
0.000946911
0.000989524
0.00102328
0.00105014
0.00107177
0.00108961
0.00110492
0.00111883
0.00113235
0.0011464
0.0011618
0.00117929
0.00119952
0.00122296
0.00124993
0.00128041
0.00131404
0.00134992
0.00138644
0.001421
0.0014497
0.00146453
0.00146679
0.0014473
0.00140201
0.00133579
0.00124974
0.00112994
0.000975198
0.000791753
0.000594333
0.000399242
0.000250343
4.92077e-05
0.000107459
0.000445681
0.000631419
0.000753943
0.000845099
0.000915853
0.000971649
0.00101591
0.00105116
0.00107941
0.00110237
0.00112155
0.00113829
0.00115382
0.00116926
0.00118564
0.00120392
0.00122496
0.00124949
0.00127803
0.00131082
0.00134774
0.00138812
0.00143057
0.0014727
0.00151077
0.00153663
0.00154533
0.00153663
0.00150087
0.00145006
0.0013996
0.00134695
0.00125888
0.00110804
0.000895595
0.00063683
0.000384882
0.000185458
3.74486e-05
0.000110211
0.00045493
0.00064389
0.000768856
0.000862098
0.000934699
0.00099215
0.00103791
0.00107454
0.00110408
0.00112833
0.00114884
0.00116704
0.00118427
0.00120176
0.00122067
0.00124209
0.00126697
0.00129612
0.00133004
0.00136888
0.00141227
0.00145908
0.00150715
0.00155281
0.00158938
0.0016046
0.00160209
0.00157208
0.00152753
0.00150782
0.00151173
0.00151546
0.00147602
0.00135141
0.00113546
0.000823183
0.000444052
0.000156687
2.82337e-05
0.000112378
0.000462333
0.000653878
0.000780861
0.000875868
0.000950064
0.00100897
0.00105607
0.00109394
0.0011247
0.00115015
0.00117196
0.00119163
0.00121058
0.00123019
0.00125173
0.0012764
0.00130525
0.00133909
0.00137838
0.00142308
0.00147243
0.00152465
0.00157639
0.00162186
0.00164678
0.00164939
0.00162258
0.00158168
0.0015732
0.00161662
0.00169101
0.00172067
0.00172411
0.00164282
0.00145521
0.0011505
0.000689185
0.000214127
3.57515e-05
0.000114057
0.000468208
0.00066179
0.000790412
0.000886887
0.000962434
0.00102259
0.00107086
0.00110984
0.00114169
0.00116828
0.00119131
0.00121239
0.00123306
0.00125477
0.00127893
0.00130683
0.00133955
0.0013779
0.0014222
0.00147213
0.00152642
0.00158236
0.00163507
0.00167229
0.00168326
0.00166616
0.00162162
0.00160519
0.00164628
0.00177157
0.00189109
0.00194928
0.00196898
0.00194033
0.00179906
0.00153087
0.00109586
0.000443463
0.000109459
0.000115338
0.000472833
0.000667981
0.000797906
0.000895573
0.000972237
0.00103344
0.00108271
0.00112265
0.00115546
0.00118306
0.00120722
0.00122964
0.00125192
0.00127564
0.00130228
0.0013332
0.0013695
0.00141191
0.00146055
0.00151474
0.00157252
0.00162991
0.00167978
0.00170304
0.0016999
0.00165894
0.00162437
0.00163221
0.00174318
0.00191753
0.00206031
0.00215324
0.00219685
0.00220458
0.00212478
0.00189839
0.00148257
0.000824227
0.000315471
0.000116299
0.000476449
0.000672767
0.000803695
0.000902299
0.000979855
0.00104191
0.00109199
0.00113274
0.00116636
0.00119483
0.00121999
0.00124359
0.00126734
0.00129287
0.00132175
0.00135535
0.00139474
0.00144053
0.00149261
0.00154983
0.00160947
0.00166637
0.00170763
0.00171949
0.0016981
0.00164439
0.00161972
0.00166192
0.00182436
0.00202248
0.00218437
0.00231504
0.00240377
0.0024387
0.00241659
0.00224044
0.00183661
0.00115319
0.000572051
0.000117012
0.000479271
0.000676424
0.000808092
0.000907399
0.000985633
0.00104834
0.00109905
0.00114042
0.0011747
0.00120389
0.00122988
0.00125449
0.00127948
0.00130656
0.00133732
0.00137312
0.00141498
0.00146334
0.00151779
0.00157672
0.00163657
0.00169081
0.00172185
0.00172333
0.00168595
0.0016239
0.00160726
0.00167892
0.0018695
0.00207468
0.00224775
0.00241138
0.00256577
0.00265109
0.00267108
0.00255421
0.00216518
0.00142121
0.000751655
0.00011754
0.000481488
0.000679201
0.000811377
0.000911174
0.000989882
0.00105305
0.0011042
0.00114603
0.00118078
0.0012105
0.00123713
0.00126253
0.00128852
0.00131681
0.00134902
0.00138648
0.00143009
0.00148011
0.00153585
0.0015952
0.00165386
0.00170377
0.00172607
0.00171799
0.0016647
0.00159814
0.00158448
0.00167212
0.0018702
0.00207722
0.00225832
0.00244302
0.0026507
0.00282635
0.00289703
0.00284538
0.00248269
0.00170609
0.000901169
0.000117943
0.000483273
0.000681319
0.000813803
0.000913897
0.000992888
0.00105632
0.00110774
0.00114983
0.00118487
0.00121495
0.00124201
0.00126797
0.00129464
0.00132379
0.00135698
0.00139549
0.00144011
0.0014909
0.00154688
0.00160556
0.0016621
0.0017067
0.00172359
0.00170688
0.00164243
0.00156996
0.00155478
0.00164581
0.00183669
0.00203805
0.00222881
0.00243841
0.00268481
0.002955
0.00310806
0.00312008
0.00278773
0.00196351
0.00104251
0.000118276
0.00048478
0.00068298
0.0008156
0.000915814
0.000994911
0.00105844
0.00110994
0.00115212
0.00118727
0.00121749
0.00124478
0.00127103
0.0012981
0.00132772
0.00136142
0.00140039
0.00144528
0.001496
0.00155127
0.00160833
0.00166217
0.0017032
0.00171653
0.00169294
0.00162301
0.00154171
0.00151799
0.00159434
0.00176902
0.0019637
0.00216234
0.00239703
0.00269173
0.00303266
0.00330188
0.00337772
0.0030927
0.00222676
0.0011682
0.000118588
0.000486152
0.000684367
0.000816975
0.000917152
0.000996191
0.00105964
0.00111105
0.00115314
0.00118821
0.00121839
0.00124568
0.00127199
0.00129916
0.00132888
0.00136262
0.00140148
0.00144598
0.0014959
0.00155005
0.00160553
0.00165714
0.00169449
0.00170518
0.00167955
0.00160928
0.00151913
0.00148005
0.0015305
0.00167959
0.00186516
0.00207245
0.00233484
0.00267908
0.00308703
0.00346413
0.0036201
0.00338308
0.00247068
0.00128891
0.000118931
0.000487523
0.00068565
0.000818121
0.000918121
0.000996949
0.00106016
0.00111131
0.00115314
0.001188
0.00121801
0.00124516
0.00127135
0.0012984
0.00132795
0.00136142
0.00139984
0.00144367
0.00149254
0.00154497
0.00159793
0.00164637
0.00168124
0.0016916
0.00166755
0.00160121
0.00150955
0.00144984
0.00146911
0.00158499
0.00175728
0.00197409
0.00226656
0.00265891
0.00313155
0.00359971
0.00384628
0.00366743
0.00272164
0.00140371
0.000119354
0.000489023
0.000686988
0.000819216
0.000918913
0.000997394
0.00106023
0.00111102
0.00115253
0.00118705
0.00121673
0.00124357
0.00126946
0.00129616
0.00132529
0.00135816
0.00139571
0.00143826
0.00148536
0.0015355
0.00158584
0.00163159
0.00166508
0.00167656
0.00165681
0.00159869
0.00151241
0.00143879
0.00142833
0.00150281
0.00165758
0.00188342
0.00220611
0.00264249
0.00317217
0.00371075
0.00404921
0.00393185
0.00296062
0.00151355
0.000119908
0.000490779
0.000688535
0.000820427
0.000919709
0.000997721
0.00106007
0.00111036
0.00115134
0.00118539
0.00121463
0.00124104
0.00126648
0.00129267
0.00132115
0.00135317
0.00138956
0.00143057
0.00147569
0.00152345
0.00157114
0.00161442
0.00164687
0.00166016
0.00164613
0.00159914
0.00152202
0.00144563
0.00141553
0.0014576
0.00158408
0.00181405
0.00216107
0.00262999
0.00319951
0.00379915
0.00422535
0.00417454
0.00319515
0.00162034
0.000120649
0.000492922
0.00069044
0.000821915
0.000920681
0.000998112
0.00105985
0.00110952
0.00114993
0.00118343
0.00121216
0.00123807
0.00126299
0.00128858
0.00131631
0.00134733
0.00138241
0.00142171
0.00146472
0.00151
0.00155506
0.00159605
0.00162757
0.0016427
0.00163461
0.00159963
0.00153645
0.00146494
0.00142499
0.00145043
0.00155209
0.00177402
0.00213209
0.00261756
0.00320949
0.00385139
0.00436699
0.00439237
0.00342637
0.0017246
0.000121636
0.000495584
0.000692849
0.000823836
0.000921991
0.000998743
0.00105979
0.00110877
0.00114854
0.00118147
0.00120967
0.00123507
0.00125945
0.00128442
0.00131136
0.00134135
0.00137505
0.00141261
0.00145347
0.00149629
0.00153878
0.00157759
0.00160817
0.00162488
0.00162194
0.00159801
0.00154939
0.00149004
0.00144943
0.00146547
0.00155192
0.00175799
0.00211118
0.00259609
0.00319959
0.00387013
0.00446427
0.00458163
0.00365289
0.00182602
0.000122939
0.000498909
0.000695914
0.000826344
0.000923799
0.000999784
0.00106005
0.00110834
0.00114746
0.00117982
0.00120752
0.00123246
0.00125636
0.00128076
0.00130695
0.00133593
0.00136832
0.00140418
0.00144297
0.00148344
0.0015235
0.00156022
0.00158976
0.00160755
0.00160879
0.00159326
0.00155787
0.00151164
0.0014781
0.00149112
0.00156554
0.00175168
0.00208519
0.00255266
0.00315263
0.00385514
0.00450947
0.00474349
0.00388003
0.00192607
0.000124636
0.000503049
0.000699791
0.000829592
0.000926263
0.00100141
0.00106085
0.00110843
0.00114696
0.00117882
0.00120612
0.00123071
0.00125424
0.00127818
0.00130374
0.00133184
0.00136303
0.00139735
0.00143427
0.00147259
0.00151045
0.00154522
0.00157365
0.00159198
0.00159639
0.00158668
0.00156162
0.0015266
0.00150088
0.00151261
0.00157759
0.00174165
0.00204411
0.00248076
0.00306369
0.00378568
0.00452006
0.00487575
0.00410659
0.0020231
0.000126824
0.000508178
0.000704645
0.000833739
0.00092954
0.00100378
0.00106239
0.00110923
0.00114727
0.00117883
0.00120591
0.00123033
0.00125368
0.00127735
0.00130247
0.0013299
0.0013601
0.00139312
0.00142846
0.00146499
0.00150097
0.00153408
0.00156147
0.00157998
0.00158655
0.00158071
0.00156283
0.00153581
0.00151567
0.00152542
0.00158003
0.00171979
0.00198452
0.00238127
0.00293654
0.003668
0.00447672
0.00497265
0.00433128
0.00211777
0.00012962
0.000514484
0.000710659
0.000838956
0.000933801
0.0010071
0.00106489
0.0011111
0.00114868
0.00118001
0.00120705
0.00123152
0.00125492
0.00127858
0.00130359
0.00133073
0.00136045
0.00139273
0.00142697
0.00146219
0.0014968
0.0015287
0.00155538
0.0015741
0.00158226
0.00157898
0.00156554
0.00154334
0.00152583
0.00153219
0.00157493
0.00168838
0.00191171
0.00226257
0.00278104
0.00351034
0.00438628
0.00503913
0.00455221
0.00220912
0.000133192
0.00052222
0.00071805
0.000845441
0.000939255
0.00101161
0.0010687
0.00111449
0.00115189
0.00118325
0.00121052
0.00123533
0.0012591
0.00128307
0.00130825
0.00133538
0.00136488
0.00139676
0.00143058
0.00146533
0.0014995
0.0015311
0.00155778
0.00157702
0.00158644
0.00158494
0.00157495
0.00155649
0.00153986
0.00154202
0.00157228
0.00165949
0.00183893
0.0021402
0.00261454
0.0033273
0.00425859
0.00507544
0.00476149
0.00229693
0.00013774
0.000531583
0.000727071
0.000853457
0.000946215
0.00101776
0.00107441
0.00112017
0.00115792
0.0011899
0.00121796
0.00124369
0.00126843
0.00129332
0.00131932
0.00134712
0.00137713
0.00140938
0.00144347
0.00147851
0.0015131
0.00154538
0.00157318
0.00159419
0.00160627
0.00160803
0.00160175
0.00158765
0.00157252
0.00157061
0.00159045
0.00165505
0.00179714
0.0020547
0.00247518
0.00314893
0.00411267
0.0050919
0.00494877
0.00238232
0.000143813
0.000543117
0.000738145
0.000863474
0.000955362
0.00102657
0.00108349
0.00113007
0.00116914
0.0012028
0.00123279
0.0012606
0.00128751
0.00131459
0.00134274
0.00137263
0.00140467
0.00143893
0.00147507
0.0015123
0.00154938
0.00158461
0.00161599
0.00164141
0.0016589
0.00166712
0.00166653
0.00165995
0.00164964
0.00164776
0.00166207
0.00171072
0.00182159
0.0020376
0.0024185
0.0030626
0.00401226
0.00509837
0.00507117
0.00246681
0.000151261
0.000556839
0.000752001
0.000876754
0.000968764
0.00104119
0.00110025
0.0011497
0.00119219
0.00122979
0.00126416
0.00129669
0.00132858
0.00136084
0.00139432
0.00142965
0.00146727
0.00150729
0.0015495
0.00159319
0.00163725
0.00168018
0.00172019
0.00175538
0.00178399
0.00180478
0.00181756
0.00182442
0.0018278
0.00183553
0.00185572
0.00190289
0.00200029
0.0021829
0.002504
0.00306671
0.00398074
0.00511629
0.00512344
0.00256037
0.0001629
0.000575657
0.000771371
0.000898293
0.000994284
0.00107204
0.0011378
0.00119529
0.00124699
0.00129482
0.00134034
0.00138484
0.00142944
0.00147505
0.00152244
0.00157218
0.0016247
0.00168025
0.00173871
0.00179935
0.00186106
0.00192246
0.00198203
0.00203814
0.0020894
0.00213479
0.00217419
0.00220901
0.00224165
0.00227687
0.00232194
0.00238846
0.00249284
0.0026593
0.0029256
0.00338962
0.00415133
0.00520369
0.00513929
0.002616
0.000175588
0.000602412
0.000808485
0.000947536
0.00105948
0.00115661
0.00124484
0.00132757
0.00140698
0.00148468
0.00156203
0.0016401
0.00171979
0.00180172
0.00188637
0.00197397
0.00206477
0.00215914
0.0022575
0.00235827
0.00245987
0.00256057
0.00265913
0.00275415
0.002845
0.00293083
0.00301215
0.0030906
0.00316834
0.00324635
0.00332935
0.00342385
0.00353682
0.00369002
0.00388953
0.00422536
0.00472083
0.00542788
0.00513528
0.0026417
0.000199342
0.000660194
0.000912734
0.00111139
0.00129119
0.00146085
0.00162671
0.00179139
0.00195562
0.00211964
0.00228378
0.0024483
0.00261336
0.00277871
0.00294416
0.00310901
0.0032732
0.0034368
0.00360339
0.0037684
0.00392868
0.00408162
0.00422734
0.00436427
0.00449393
0.00461473
0.00472962
0.00483478
0.00493425
0.0050271
0.00512061
0.00521431
0.00531311
0.00543848
0.00556251
0.00575147
0.0058678
0.00585082
0.00512774
0.00264379
0.000242866
0.000819682
0.00130729
0.00177697
0.00220032
0.00258995
0.00296315
0.0033233
0.00366846
0.00399639
0.00430692
0.00460024
0.00487758
0.00513893
0.00538549
0.0056164
0.00583343
0.00603626
0.00622154
0.00638792
0.00653975
0.00667503
0.00679932
0.00690874
0.00701036
0.00709849
0.00718293
0.0072546
0.00732591
0.0073837
0.00744692
0.00749473
0.0075669
0.0075918
0.00755442
0.00738884
0.00696554
0.00611588
0.0048639
0.0025009
0.000172016
0.000290401
0.000458348
0.000616958
0.000768967
0.00090989
0.00104155
0.00116703
0.00128854
0.00140701
0.00152282
0.00163586
0.00174636
0.00185415
0.00195937
0.00206212
0.00216186
0.00225967
0.00235414
0.00244537
0.00253215
0.00261541
0.00269369
0.00276842
0.00283798
0.00290366
0.00296438
0.00302034
0.00307173
0.00311565
0.00315531
0.00318169
0.00320352
0.00320913
0.00320886
0.00320126
0.00317206
0.00309355
0.00290498
0.00234681
)
;

boundaryField
{
    movingWall
    {
        type            kqRWallFunction;
        value           nonuniform List<scalar> 
40
(
0.000172016
0.000290401
0.000458348
0.000616958
0.000768967
0.00090989
0.00104155
0.00116703
0.00128854
0.00140701
0.00152282
0.00163586
0.00174636
0.00185415
0.00195937
0.00206212
0.00216186
0.00225967
0.00235414
0.00244537
0.00253215
0.00261541
0.00269369
0.00276842
0.00283798
0.00290366
0.00296438
0.00302034
0.00307173
0.00311565
0.00315531
0.00318169
0.00320352
0.00320913
0.00320886
0.00320126
0.00317206
0.00309355
0.00290498
0.00234681
)
;
    }
    fixedWalls
    {
        type            kqRWallFunction;
        value           nonuniform List<scalar> 
120
(
3.83802e-06
1.65561e-05
3.27541e-05
4.76268e-05
6.04606e-05
7.13452e-05
8.05012e-05
8.81528e-05
9.45055e-05
9.97383e-05
0.000104009
0.000107459
0.000110211
0.000112378
0.000114057
0.000115338
0.000116299
0.000117012
0.00011754
0.000117943
0.000118276
0.000118588
0.000118931
0.000119354
0.000119908
0.000120649
0.000121636
0.000122939
0.000124636
0.000126824
0.00012962
0.000133192
0.00013774
0.000143813
0.000151261
0.0001629
0.000175588
0.000199342
0.000242866
0.000172016
3.80935e-06
1.56109e-05
2.79742e-05
3.7496e-05
4.44969e-05
4.95616e-05
5.31574e-05
5.50908e-05
5.54251e-05
5.45311e-05
4.92077e-05
3.74486e-05
2.82337e-05
3.57515e-05
0.000109459
0.000315471
0.000572051
0.000751655
0.000901169
0.00104251
0.0011682
0.00128891
0.00140371
0.00151355
0.00162034
0.0017246
0.00182602
0.00192607
0.0020231
0.00211777
0.00220912
0.00229693
0.00238232
0.00246681
0.00256037
0.002616
0.0026417
0.00264379
0.0025009
0.00234681
3.83802e-06
1.60582e-05
2.9618e-05
4.07333e-05
4.94706e-05
5.63081e-05
6.16373e-05
6.57599e-05
6.89249e-05
7.13489e-05
7.32242e-05
7.4718e-05
7.59722e-05
7.7104e-05
7.82086e-05
7.93622e-05
8.06256e-05
8.20464e-05
8.36597e-05
8.5488e-05
8.75374e-05
8.97936e-05
9.22138e-05
9.47165e-05
9.71849e-05
9.95584e-05
0.000102193
0.000104621
0.000106246
0.000106968
0.000106303
0.000103691
9.88415e-05
9.14587e-05
8.13564e-05
6.84932e-05
5.29644e-05
3.52184e-05
1.67287e-05
3.80935e-06
)
;
    }
    frontAndBack
    {
        type            empty;
    }
}


// ************************************************************************* //
