/*--------------------------------*- C++ -*----------------------------------*\
  =========                 |
  \\      /  F ield         | OpenFOAM: The Open Source CFD Toolbox
   \\    /   O peration     | Website:  https://openfoam.org
    \\  /    A nd           | Version:  12
     \\/     M anipulation  |
\*---------------------------------------------------------------------------*/
FoamFile
{
    format      ascii;
    class       volScalarField;
    location    "1";
    object      nut;
}
// * * * * * * * * * * * * * * * * * * * * * * * * * * * * * * * * * * * * * //

dimensions      [0 2 -1 0 0 0 0];

internalField   nonuniform List<scalar> 
1600
(
2.66825e-08
1.11743e-07
2.06175e-07
2.83601e-07
3.44477e-07
3.92132e-07
4.29289e-07
4.58046e-07
4.80133e-07
4.97057e-07
5.10157e-07
5.20601e-07
5.29379e-07
5.37312e-07
5.45067e-07
5.53181e-07
5.62081e-07
5.72104e-07
5.83501e-07
5.9643e-07
6.10941e-07
6.26934e-07
6.44113e-07
6.61902e-07
6.79479e-07
6.9642e-07
7.15241e-07
7.32706e-07
7.44502e-07
7.49846e-07
7.45462e-07
7.27219e-07
6.93114e-07
6.41088e-07
5.6989e-07
4.79324e-07
3.70176e-07
2.45741e-07
1.1648e-07
2.64795e-08
1.15237e-07
4.34069e-06
8.42768e-06
1.09061e-05
1.25731e-05
1.37843e-05
1.46987e-05
1.5399e-05
1.59365e-05
1.63482e-05
1.66656e-05
1.69156e-05
1.71218e-05
1.73048e-05
1.7483e-05
1.76722e-05
1.78866e-05
1.81386e-05
1.84394e-05
1.87985e-05
1.92239e-05
1.97207e-05
2.02896e-05
2.09212e-05
2.15831e-05
2.22115e-05
2.27224e-05
2.31365e-05
2.33581e-05
2.35217e-05
2.33986e-05
2.29626e-05
2.21371e-05
2.08498e-05
1.90336e-05
1.66417e-05
1.35419e-05
9.53502e-06
4.08725e-06
1.08591e-07
2.28212e-07
9.26837e-06
1.90607e-05
2.5183e-05
2.92781e-05
3.22005e-05
3.43759e-05
3.60303e-05
3.73025e-05
3.82871e-05
3.90477e-05
3.96464e-05
4.01374e-05
4.05673e-05
4.09756e-05
4.13956e-05
4.18543e-05
4.23729e-05
4.29675e-05
4.36482e-05
4.44186e-05
4.52742e-05
4.62005e-05
4.71678e-05
4.81264e-05
4.90075e-05
4.97284e-05
5.02188e-05
5.04217e-05
5.03015e-05
4.96084e-05
4.82614e-05
4.61367e-05
4.31102e-05
3.90492e-05
3.37726e-05
2.70779e-05
1.86069e-05
7.51581e-06
1.94646e-07
3.3208e-07
1.27163e-05
2.6759e-05
3.59654e-05
4.22635e-05
4.68288e-05
5.02465e-05
5.28441e-05
5.48285e-05
5.63465e-05
5.7522e-05
5.84501e-05
5.92103e-05
5.98697e-05
6.04841e-05
6.10988e-05
6.1749e-05
6.24603e-05
6.32486e-05
6.412e-05
6.50697e-05
6.60798e-05
6.71211e-05
6.81475e-05
6.90939e-05
6.98807e-05
7.04201e-05
7.05455e-05
7.02084e-05
6.94516e-05
6.77894e-05
6.52528e-05
6.17212e-05
5.70708e-05
5.11636e-05
4.38164e-05
3.47579e-05
2.35516e-05
9.42048e-06
2.60954e-07
4.21802e-07
1.53022e-05
3.2584e-05
4.42853e-05
5.24338e-05
5.83734e-05
6.28289e-05
6.62214e-05
6.88218e-05
7.08245e-05
7.23807e-05
7.36118e-05
7.46185e-05
7.54851e-05
7.62806e-05
7.70597e-05
7.78633e-05
7.87187e-05
7.964e-05
8.06272e-05
8.16661e-05
8.27276e-05
8.37613e-05
8.46986e-05
8.54544e-05
8.59282e-05
8.60058e-05
8.54738e-05
8.43322e-05
8.25637e-05
7.99452e-05
7.61796e-05
7.13938e-05
6.54966e-05
5.83542e-05
4.97477e-05
3.93225e-05
2.65549e-05
1.06678e-05
3.09797e-07
4.97967e-07
1.73293e-05
3.71407e-05
5.0899e-05
6.06156e-05
6.775e-05
7.31238e-05
7.72285e-05
8.03855e-05
8.28255e-05
8.47263e-05
8.62312e-05
8.74588e-05
8.85076e-05
8.94576e-05
9.03711e-05
9.12934e-05
9.22526e-05
9.32595e-05
9.43069e-05
9.53676e-05
9.63934e-05
9.73123e-05
9.80286e-05
9.84254e-05
9.83705e-05
9.77243e-05
9.62561e-05
9.39859e-05
9.09564e-05
8.71285e-05
8.2226e-05
7.62688e-05
6.94576e-05
6.16666e-05
5.26154e-05
4.17692e-05
2.84036e-05
1.15786e-05
3.45284e-07
5.62089e-07
1.89491e-05
4.07898e-05
5.62633e-05
6.73195e-05
7.54961e-05
8.16843e-05
8.64281e-05
9.00889e-05
9.29267e-05
9.51423e-05
9.68978e-05
9.8327e-05
9.95405e-05
0.000100628
0.000101658
0.00010268
0.000103721
0.000104787
0.00010586
0.000106894
0.000107815
0.000108514
0.000108853
0.000108672
0.000107799
0.000106073
0.000103271
9.94193e-05
9.47916e-05
8.92956e-05
8.32764e-05
7.61629e-05
6.86714e-05
6.07877e-05
5.22176e-05
4.20528e-05
2.91982e-05
1.22732e-05
3.70695e-07
6.15717e-07
2.02548e-05
4.37541e-05
6.06671e-05
7.28727e-05
8.19605e-05
8.88714e-05
9.41897e-05
9.83075e-05
0.000101509
0.000104015
0.000106003
0.000107619
0.000108986
0.000110202
0.00011134
0.000112453
0.000113565
0.000114674
0.000115743
0.000116699
0.000117423
0.000117756
0.000117496
0.000116423
0.000114325
0.000111035
0.000106361
0.000100391
9.37233e-05
8.6176e-05
7.87865e-05
7.06914e-05
6.25957e-05
5.49798e-05
4.74591e-05
3.87131e-05
2.78788e-05
1.25843e-05
3.84368e-07
6.60276e-07
2.13128e-05
4.61786e-05
6.43049e-05
7.74986e-05
8.73829e-05
9.4935e-05
0.000100769
0.000105302
0.000108838
0.000111612
0.000113817
0.000115611
0.000117125
0.000118465
0.00011971
0.000120911
0.000122088
0.000123222
0.000124249
0.000125049
0.000125443
0.000125194
0.000124022
0.00012164
0.000117808
0.000112394
0.000105264
9.67406e-05
8.76967e-05
7.80753e-05
6.91651e-05
6.05178e-05
5.19267e-05
4.46668e-05
3.81122e-05
3.20122e-05
2.45963e-05
1.2231e-05
3.86696e-07
6.97008e-07
2.21706e-05
4.81653e-05
6.73151e-05
8.1358e-05
9.19376e-05
0.000100057
0.000106355
0.000111264
0.000115107
0.000118131
0.000120541
0.000122504
0.000124162
0.000125625
0.000126977
0.000128264
0.000129496
0.000130628
0.000131551
0.000132081
0.000131955
0.000130838
0.000128364
0.000124197
0.000118113
0.00011009
0.000100087
8.89881e-05
7.76959e-05
6.64543e-05
5.66861e-05
4.82462e-05
3.98271e-05
3.31927e-05
2.78014e-05
2.30903e-05
1.88319e-05
1.09765e-05
3.80422e-07
7.27007e-07
2.2864e-05
4.97894e-05
6.98014e-05
8.45724e-05
9.57573e-05
0.000104378
0.000111089
0.00011634
0.000120464
0.00012372
0.000126323
0.000128451
0.00013025
0.000131837
0.000133295
0.000134664
0.000135931
0.000137015
0.000137744
0.00013785
0.000136964
0.000134649
0.000130469
0.000124084
0.00011537
0.000104494
9.16232e-05
7.85457e-05
6.57917e-05
5.41813e-05
4.50036e-05
3.80734e-05
3.1095e-05
2.5284e-05
2.02498e-05
1.59246e-05
1.21149e-05
8.12012e-06
3.41005e-07
7.51249e-07
2.34207e-05
5.1109e-05
7.18445e-05
8.72377e-05
9.89473e-05
0.000108008
0.000115088
0.000120646
0.000125026
0.000128499
0.000131285
0.000133571
0.000135508
0.000137218
0.000138778
0.000140216
0.000141487
0.000142457
0.000142877
0.000142375
0.000140472
0.000136645
0.000130431
0.000121572
0.00011016
9.63678e-05
8.14849e-05
6.74154e-05
5.4702e-05
4.47167e-05
3.80192e-05
3.38674e-05
2.93312e-05
2.40485e-05
1.83832e-05
1.25277e-05
8.06959e-06
4.287e-06
2.56427e-07
7.70601e-07
2.38626e-05
5.21705e-05
7.35096e-05
8.94317e-05
0.000101594
0.000111039
0.000118444
0.000124279
0.000128893
0.000132565
0.000135523
0.00013796
0.000140033
0.000141861
0.000143514
0.000144999
0.00014623
0.000147006
0.000146986
0.000145693
0.00014255
0.000136985
0.000128576
0.000117241
0.000103249
8.70989e-05
7.16167e-05
5.77312e-05
4.70856e-05
4.11388e-05
3.82649e-05
3.68448e-05
3.44071e-05
2.9179e-05
2.22975e-05
1.42966e-05
6.71541e-06
2.39541e-06
1.95473e-07
7.85831e-07
2.42078e-05
5.30124e-05
7.48513e-05
9.12201e-05
0.00010377
0.000113549
0.00012124
0.000127319
0.000132144
0.000135999
0.000139118
0.000141699
0.0001439
0.000145837
0.000147569
0.000149071
0.000150209
0.000150706
0.000150128
0.000147899
0.000143379
0.000136005
0.000125479
0.000111947
9.54992e-05
7.87093e-05
6.33466e-05
5.17227e-05
4.57141e-05
4.42622e-05
4.50542e-05
4.41827e-05
4.27344e-05
3.82127e-05
3.02334e-05
2.03891e-05
9.53522e-06
2.32422e-06
2.60992e-07
7.97627e-07
2.44718e-05
5.36675e-05
7.59159e-05
9.2659e-05
0.000105538
0.000115604
0.000123544
0.00012984
0.000134853
0.000138873
0.00014214
0.000144854
0.000147174
0.000149209
0.000150998
0.000152484
0.000153475
0.00015362
0.000152397
0.000149162
0.000143256
0.000134189
0.000121866
0.00010621
8.86575e-05
7.20138e-05
5.81968e-05
5.0613e-05
4.84652e-05
5.1225e-05
5.37649e-05
5.34165e-05
5.12133e-05
4.76832e-05
4.0341e-05
2.93241e-05
1.63252e-05
4.28626e-06
8.24872e-07
8.06606e-07
2.46679e-05
5.41642e-05
7.67443e-05
9.37982e-05
0.000106955
0.000117265
0.000125418
0.000131902
0.000137081
0.000141249
0.00014465
0.000147484
0.00014991
0.000152025
0.000153849
0.000155285
0.000156087
0.000155832
0.000153936
0.000149717
0.000142544
0.000132037
0.000118262
0.000100966
8.34415e-05
6.72561e-05
5.66994e-05
5.1933e-05
5.37803e-05
5.88484e-05
6.21664e-05
6.24517e-05
6.00293e-05
5.62901e-05
5.00867e-05
3.93921e-05
2.40844e-05
8.4896e-06
2.32191e-06
8.13321e-07
2.48076e-05
5.4528e-05
7.73728e-05
9.46819e-05
0.000108069
0.000118584
0.000126919
0.000133562
0.000138885
0.000143182
0.0001467
0.000149641
0.000152157
0.000154335
0.000156171
0.00015753
0.000158116
0.000157454
0.000154917
0.000149828
0.000141623
0.000130076
0.000114918
9.72269e-05
7.98701e-05
6.51256e-05
5.69492e-05
5.46635e-05
5.93518e-05
6.5537e-05
6.95698e-05
7.0931e-05
6.87817e-05
6.43093e-05
5.87551e-05
4.9053e-05
3.27339e-05
1.32911e-05
4.09584e-06
8.18271e-07
2.49017e-05
5.47819e-05
7.78343e-05
9.535e-05
0.000108926
0.00011961
0.000128095
0.000134873
0.000140316
0.000144723
0.000148341
0.000151372
0.00015396
0.000156183
0.000158011
0.000159277
0.000159646
0.000158606
0.000155521
0.000149743
0.00014079
0.000128544
0.000112497
9.50287e-05
7.82008e-05
6.44274e-05
5.7644e-05
5.75088e-05
6.36717e-05
7.02449e-05
7.45632e-05
7.69131e-05
7.69204e-05
7.19378e-05
6.58006e-05
5.76298e-05
4.10965e-05
1.81594e-05
5.31717e-06
8.21909e-07
2.49598e-05
5.49468e-05
7.81586e-05
9.58391e-05
0.000109568
0.000120387
0.000128994
0.00013588
0.000141421
0.000145918
0.000149619
0.000152721
0.000155366
0.000157615
0.000159422
0.000160592
0.000160764
0.000159412
0.000155913
0.000149667
0.000140273
0.000127638
0.000111387
9.43812e-05
7.73633e-05
6.45469e-05
5.88366e-05
5.97085e-05
6.63198e-05
7.31799e-05
7.79086e-05
8.07247e-05
8.19537e-05
7.90843e-05
7.17098e-05
6.4505e-05
4.85422e-05
2.34598e-05
6.36224e-06
8.24646e-07
2.49908e-05
5.50423e-05
7.83735e-05
9.61827e-05
0.000110031
0.000120957
0.000129657
0.000136628
0.000142246
0.000146814
0.000150578
0.000153734
0.000156418
0.00015868
0.000160458
0.000161542
0.000161559
0.000159988
0.000156235
0.000149762
0.000140266
0.000127536
0.000111565
9.45284e-05
7.7828e-05
6.5629e-05
6.02286e-05
6.14609e-05
6.78562e-05
7.47151e-05
8.02235e-05
8.4006e-05
8.56348e-05
8.50232e-05
7.77012e-05
7.02096e-05
5.49223e-05
2.82593e-05
7.34225e-06
8.26868e-07
2.50032e-05
5.50865e-05
7.85047e-05
9.6412e-05
0.00011035
0.000121356
0.000130128
0.000137164
0.000142839
0.000147457
0.000151267
0.000154462
0.00015717
0.000159434
0.000161184
0.000162203
0.000162122
0.000160446
0.000156612
0.000150136
0.000140681
0.000128033
0.000112466
9.59598e-05
7.97376e-05
6.7334e-05
6.16704e-05
6.22354e-05
6.80409e-05
7.49385e-05
8.12017e-05
8.60872e-05
8.88062e-05
8.89616e-05
8.34842e-05
7.48306e-05
6.04357e-05
3.3001e-05
8.21805e-06
8.28935e-07
2.50047e-05
5.50968e-05
7.85759e-05
9.65555e-05
0.000110559
0.000121621
0.000130436
0.000137501
0.0001432
0.000147841
0.00015167
0.000154883
0.000157604
0.000159873
0.00016161
0.000162596
0.000162464
0.000160737
0.000156923
0.000150568
0.000141422
0.000129256
0.000114509
9.86483e-05
8.28713e-05
6.99234e-05
6.34174e-05
6.26965e-05
6.74045e-05
7.41614e-05
8.11779e-05
8.73218e-05
9.125e-05
9.2024e-05
8.82366e-05
7.88417e-05
6.48378e-05
3.68557e-05
9.06061e-06
8.312e-07
2.5003e-05
5.50904e-05
7.86096e-05
9.66408e-05
0.000110688
0.00012178
0.000130615
0.000137698
0.000143419
0.000148079
0.000151923
0.000155141
0.000157856
0.000160106
0.000161816
0.000162784
0.000162671
0.000161037
0.000157403
0.000151361
0.000142697
0.000131247
0.00011741
0.00010233
8.70933e-05
7.39044e-05
6.59238e-05
6.35756e-05
6.67176e-05
7.30118e-05
8.07142e-05
8.81894e-05
9.33017e-05
9.47456e-05
9.19621e-05
8.237e-05
6.85444e-05
4.04848e-05
9.86234e-06
8.34013e-07
2.50058e-05
5.50825e-05
7.86278e-05
9.66929e-05
0.000110764
0.00012187
0.000130719
0.000137817
0.000143542
0.000148202
0.000152045
0.000155261
0.000157973
0.000160218
0.000161927
0.000162906
0.000162845
0.000161342
0.000157966
0.000152364
0.000144319
0.000133753
0.000120964
0.000106836
9.23494e-05
7.92435e-05
6.99935e-05
6.59448e-05
6.68516e-05
7.23479e-05
8.05759e-05
8.92871e-05
9.54091e-05
9.73462e-05
9.4649e-05
8.5374e-05
7.13998e-05
4.3416e-05
1.063e-05
8.3774e-07
2.50207e-05
5.50885e-05
7.8651e-05
9.67353e-05
0.000110814
0.000121918
0.000130756
0.000137832
0.000143538
0.00014818
0.000152007
0.000155207
0.000157906
0.000160142
0.000161857
0.000162877
0.00016292
0.000161625
0.000158609
0.000153543
0.000146226
0.000136623
0.000124959
0.000111909
9.84096e-05
8.55271e-05
7.55695e-05
7.02181e-05
6.94674e-05
7.32073e-05
8.1555e-05
9.11004e-05
9.77001e-05
9.94748e-05
9.65898e-05
8.77896e-05
7.35493e-05
4.58916e-05
1.1378e-05
8.42767e-07
2.50555e-05
5.51236e-05
7.86989e-05
9.67898e-05
0.000110858
0.000121938
0.000130744
0.000137786
0.000143457
0.000148067
0.000151865
0.000155041
0.000157721
0.000159951
0.000161684
0.000162768
0.000162953
0.000161916
0.000159315
0.000154852
0.000148337
0.000139739
0.00012923
0.000117336
0.000104999
9.2799e-05
8.25043e-05
7.61527e-05
7.46232e-05
7.6812e-05
8.43593e-05
9.39445e-05
0.000100289
0.000101327
9.79031e-05
8.94239e-05
7.50619e-05
4.80226e-05
1.21079e-05
8.4952e-07
2.51183e-05
5.52033e-05
7.87904e-05
9.68761e-05
0.000110917
0.000121952
0.000130705
0.000137692
0.00014331
0.000147871
0.000151627
0.000154768
0.000157424
0.00015965
0.00016141
0.000162577
0.000162932
0.00016219
0.000160046
0.000156227
0.000150554
0.000142985
0.000133651
0.000122929
0.000111839
0.000100566
9.06085e-05
8.36972e-05
8.14213e-05
8.26827e-05
8.89471e-05
9.77033e-05
0.000103024
0.000103037
9.84513e-05
9.00672e-05
7.59813e-05
4.97999e-05
1.28195e-05
8.5848e-07
2.5218e-05
5.53433e-05
7.8943e-05
9.70111e-05
0.000111005
0.000121972
0.000130641
0.000137545
0.000143085
0.000147575
0.000151269
0.000154359
0.000156982
0.000159199
0.000160988
0.000162248
0.000162794
0.000162374
0.000160715
0.000157569
0.000152761
0.000146233
0.000138079
0.00012856
0.000118641
0.000108476
9.91552e-05
9.23549e-05
8.96363e-05
8.98983e-05
9.4657e-05
0.000101849
0.000105451
0.000103976
9.86514e-05
8.99831e-05
7.65552e-05
5.1383e-05
1.35214e-05
8.70205e-07
2.53643e-05
5.55597e-05
7.91718e-05
9.72047e-05
0.000111126
0.000122
0.000130564
0.000137351
0.000142774
0.00014716
0.000150759
0.000153766
0.000156315
0.00015848
0.000160278
0.000161629
0.000162379
0.000162292
0.000161135
0.000158682
0.000154757
0.000149281
0.000142309
0.000134035
0.000125235
0.00011622
0.000107687
0.000101224
9.82042e-05
9.76129e-05
0.000100672
0.000105778
0.000107212
0.000103991
9.7814e-05
8.96836e-05
7.66989e-05
5.28416e-05
1.42024e-05
8.85373e-07
2.55684e-05
5.58686e-05
7.94869e-05
9.7454e-05
0.000111257
0.000121985
0.000130386
0.000137028
0.000142315
0.000146566
0.000150039
0.000152936
0.000155395
0.000157494
0.000159238
0.000160571
0.000161378
0.000161557
0.000160897
0.000159162
0.000156128
0.000151717
0.000145945
0.000138948
0.000131285
0.000123414
0.000115706
0.000109629
0.000106344
0.000104856
0.000106095
0.000108841
0.00010799
0.000102994
9.59713e-05
8.80522e-05
7.64591e-05
5.41904e-05
1.48673e-05
9.04812e-07
2.58437e-05
5.62849e-05
7.98865e-05
9.77286e-05
0.00011133
0.000121811
0.000129949
0.000136312
0.000141332
0.000145335
0.00014858
0.000151272
0.000153563
0.000155547
0.000157251
0.000158638
0.000159607
0.000159973
0.000159578
0.000158264
0.000156003
0.000152646
0.000148115
0.000142453
0.000135987
0.000129217
0.00012231
0.000116587
0.000113054
0.000110645
0.000110009
0.000110388
0.000107464
0.000100973
9.34549e-05
8.61319e-05
7.59952e-05
5.54953e-05
1.55084e-05
9.29707e-07
2.62072e-05
5.68169e-05
8.03407e-05
9.79356e-05
0.000111173
0.00012122
0.000128897
0.000134786
0.000139333
0.000142882
0.000145701
0.000148
0.000149942
0.000151635
0.00015313
0.000154419
0.000155435
0.000156052
0.000156102
0.000155425
0.000153828
0.000151219
0.000147541
0.000142812
0.000137272
0.000131616
0.000125658
0.000120354
0.000116701
0.000113512
0.000111145
0.000108761
0.000104289
9.76861e-05
9.02287e-05
8.37119e-05
7.51885e-05
5.66449e-05
1.61253e-05
9.61457e-07
2.66735e-05
5.74508e-05
8.07448e-05
9.78282e-05
0.000110368
0.000119631
0.000126496
0.000131575
0.000135322
0.000138097
0.000140186
0.000141808
0.000143134
0.000144283
0.000145328
0.000146286
0.000147121
0.000147751
0.000148045
0.000147849
0.000146986
0.000145316
0.000142754
0.00013927
0.000134916
0.000130219
0.000125122
0.000120124
0.000116071
0.000112059
0.00010834
0.000104558
9.93118e-05
9.19005e-05
8.55542e-05
8.08392e-05
7.41725e-05
5.75964e-05
1.67247e-05
1.00394e-06
2.72589e-05
5.8099e-05
8.078e-05
9.67587e-05
0.000107996
0.000115875
0.000121339
0.000125057
0.00012751
0.00012907
0.000130031
0.000130619
0.000131007
0.000131319
0.000131633
0.000131985
0.000132366
0.000132725
0.00013297
0.00013298
0.000132607
0.000131704
0.000130152
0.000127868
0.000124823
0.000121149
0.00011714
0.000112704
0.000108578
0.000104276
9.99251e-05
9.56393e-05
9.12404e-05
8.66166e-05
8.25695e-05
7.82278e-05
7.28443e-05
5.76315e-05
1.7318e-05
1.05612e-06
2.79668e-05
5.84219e-05
7.95622e-05
9.33716e-05
0.000102264
0.000107807
0.000111043
0.000112697
0.000113298
0.000113226
0.00011276
0.000112103
0.000111406
0.000110773
0.000110272
0.000109935
0.000109764
0.000109727
0.000109763
0.000109783
0.000109675
0.000109312
0.000108572
0.000107347
0.000105565
0.000103212
0.000100421
9.71915e-05
9.38375e-05
9.03333e-05
8.68289e-05
8.37095e-05
8.08484e-05
7.84337e-05
7.67283e-05
7.56908e-05
7.0968e-05
5.67953e-05
1.79751e-05
1.13774e-06
2.872e-05
5.7578e-05
7.52869e-05
8.50954e-05
9.011e-05
9.22156e-05
9.25688e-05
9.18999e-05
9.06851e-05
8.92301e-05
8.77334e-05
8.63242e-05
8.50872e-05
8.4075e-05
8.33177e-05
8.28234e-05
8.25853e-05
8.25784e-05
8.27567e-05
8.30517e-05
8.33869e-05
8.3669e-05
8.38086e-05
8.37127e-05
8.33178e-05
8.25767e-05
8.15312e-05
8.01951e-05
7.86748e-05
7.70658e-05
7.55059e-05
7.43057e-05
7.31658e-05
7.25878e-05
7.24611e-05
7.2603e-05
6.86365e-05
5.54686e-05
1.83665e-05
1.22692e-06
2.90153e-05
5.38091e-05
6.4558e-05
6.83472e-05
6.89791e-05
6.81719e-05
6.67834e-05
6.52613e-05
6.38361e-05
6.26171e-05
6.16526e-05
6.0958e-05
6.05354e-05
6.03755e-05
6.04683e-05
6.07978e-05
6.13589e-05
6.21481e-05
6.31127e-05
6.4187e-05
6.53223e-05
6.64583e-05
6.75533e-05
6.85491e-05
6.94182e-05
7.01216e-05
7.07247e-05
7.12022e-05
7.15267e-05
7.17062e-05
7.17466e-05
7.18088e-05
7.16539e-05
7.1577e-05
7.12295e-05
7.09186e-05
6.58105e-05
5.35773e-05
1.85471e-05
1.3934e-06
2.86528e-05
4.39524e-05
4.66442e-05
4.6913e-05
4.66889e-05
4.64494e-05
4.63694e-05
4.65062e-05
4.68652e-05
4.74276e-05
4.81711e-05
4.90701e-05
5.01044e-05
5.1252e-05
5.24981e-05
5.38284e-05
5.52542e-05
5.68735e-05
5.85864e-05
6.02992e-05
6.1982e-05
6.36044e-05
6.51618e-05
6.66289e-05
6.80081e-05
6.92764e-05
7.03982e-05
7.13369e-05
7.21304e-05
7.27961e-05
7.32792e-05
7.37436e-05
7.37636e-05
7.34994e-05
7.2263e-05
7.02771e-05
6.18572e-05
4.96816e-05
1.85622e-05
1.70069e-06
2.61807e-05
3.35981e-05
3.59552e-05
3.84132e-05
4.05915e-05
4.2606e-05
4.45134e-05
4.63299e-05
4.80639e-05
4.97253e-05
5.13237e-05
5.28662e-05
5.43568e-05
5.57981e-05
5.71895e-05
5.85357e-05
5.9855e-05
6.10641e-05
6.21746e-05
6.32148e-05
6.41958e-05
6.51285e-05
6.6011e-05
6.68504e-05
6.76408e-05
6.8395e-05
6.9092e-05
6.97443e-05
7.03188e-05
7.08811e-05
7.13118e-05
7.19233e-05
7.19566e-05
7.15846e-05
6.99751e-05
6.63526e-05
5.70753e-05
4.21047e-05
1.75581e-05
1.20446e-06
2.03435e-06
3.21156e-06
4.32319e-06
5.38883e-06
6.37678e-06
7.29985e-06
8.17969e-06
9.03181e-06
9.86269e-06
1.0675e-05
1.14681e-05
1.22433e-05
1.29997e-05
1.37379e-05
1.44591e-05
1.51589e-05
1.58451e-05
1.65084e-05
1.71492e-05
1.77588e-05
1.83436e-05
1.88936e-05
1.94183e-05
1.99069e-05
2.03679e-05
2.07941e-05
2.11868e-05
2.15475e-05
2.18565e-05
2.21348e-05
2.23216e-05
2.24751e-05
2.25177e-05
2.25165e-05
2.24661e-05
2.22566e-05
2.17197e-05
2.03831e-05
1.64753e-05
)
;

boundaryField
{
    movingWall
    {
        type            nutkWallFunction;
        Cmu             0.09;
        kappa           0.41;
        E               9.8;
        value           uniform 0;
    }
    fixedWalls
    {
        type            nutkWallFunction;
        Cmu             0.09;
        kappa           0.41;
        E               9.8;
        value           uniform 0;
    }
    frontAndBack
    {
        type            empty;
    }
}


// ************************************************************************* //
