/*--------------------------------*- C++ -*----------------------------------*\
  =========                 |
  \\      /  F ield         | OpenFOAM: The Open Source CFD Toolbox
   \\    /   O peration     | Website:  https://openfoam.org
    \\  /    A nd           | Version:  12
     \\/     M anipulation  |
\*---------------------------------------------------------------------------*/
FoamFile
{
    format      ascii;
    class       volScalarField;
    location    "1";
    object      p;
}
// * * * * * * * * * * * * * * * * * * * * * * * * * * * * * * * * * * * * * //

dimensions      [0 2 -2 0 0 0 0];

internalField   nonuniform List<scalar> 
1600
(
-5.87352e-09
-4.89665e-06
-1.00704e-05
-1.23429e-05
-1.0182e-05
-2.68451e-06
1.06542e-05
3.01594e-05
5.60927e-05
8.87144e-05
0.00012832
0.000175259
0.000229954
0.000292907
0.00036471
0.000446045
0.00053768
0.000640454
0.000755251
0.00088296
0.00102442
0.00118033
0.00135101
0.00153606
0.00173472
0.00194693
0.00216961
0.00239738
0.00262591
0.00284841
0.0030572
0.00324437
0.0034024
0.00352524
0.0036097
0.00365649
0.00367041
0.00366045
0.00363904
0.00362112
4.83941e-06
1.92722e-08
-3.58069e-06
-3.96056e-06
1.43115e-07
9.30101e-06
2.39582e-05
4.44761e-05
7.1162e-05
0.000104313
0.000144245
0.000191321
0.000245957
0.000308641
0.000379938
0.000460492
0.000551025
0.000652323
0.000765216
0.00089054
0.00102909
0.00118151
0.00134812
0.00152878
0.00172307
0.00193015
0.00214668
0.00236937
0.00259323
0.00281183
0.00301781
0.00320335
0.00336119
0.00348567
0.00357372
0.00362568
0.00364561
0.003641
0.00362341
0.00360432
1.02472e-05
3.55121e-06
-3.61371e-07
8.04684e-07
7.31893e-06
1.87635e-05
3.52916e-05
5.72421e-05
8.4955e-05
0.000118763
0.000159011
0.000206068
0.00026035
0.000322324
0.000392524
0.000471553
0.000560083
0.000658848
0.000768629
0.000890226
0.00102441
0.00117185
0.00133297
0.00150786
0.00169625
0.00189715
0.00210814
0.00232588
0.00254586
0.00276202
0.00296727
0.00315397
0.00331492
0.0034443
0.00353868
0.00359781
0.00362441
0.00362343
0.00360503
0.00358174
1.18343e-05
2.68146e-06
-3.75123e-06
-3.16867e-06
4.25665e-06
1.7007e-05
3.47376e-05
5.76125e-05
8.59033e-05
0.000119915
0.000159977
0.00020645
0.000259734
0.000320281
0.000388599
0.000465268
0.000550939
0.000646336
0.000752252
0.000869525
0.000999006
0.0011415
0.00129764
0.00146783
0.00165204
0.00184955
0.00205856
0.00227607
0.00249787
0.00271804
0.00292916
0.00312296
0.0032914
0.00342769
0.00352751
0.00358984
0.00361649
0.00361139
0.00358602
0.00355689
6.77652e-06
-5.13787e-06
-1.54086e-05
-1.7308e-05
-1.0834e-05
1.67224e-06
1.93565e-05
4.21248e-05
7.0102e-05
0.000103503
0.000142603
0.000187725
0.000239241
0.000297579
0.000363233
0.000436779
0.000518878
0.00061029
0.000711875
0.000824581
0.000949424
0.00108744
0.00123959
0.00140664
0.001589
0.00178642
0.0019976
0.00222005
0.00244973
0.00268059
0.00290434
0.00311113
0.00329091
0.00343522
0.00353827
0.00359832
0.00361749
0.00360125
0.00356479
0.00352873
-6.92883e-06
-2.14082e-05
-3.56464e-05
-4.07965e-05
-3.64056e-05
-2.53125e-05
-8.76806e-06
1.28929e-05
3.96342e-05
7.15586e-05
0.000108862
0.00015181
0.000200737
0.000256042
0.000318208
0.000387813
0.000465548
0.000552231
0.00064882
0.000756416
0.000876255
0.00100967
0.001158
0.00132253
0.00150424
0.00170355
0.0019198
0.00215113
0.00239373
0.00264118
0.00288409
0.00310996
0.00330537
0.00345905
0.00356321
0.00361549
0.00362002
0.00358672
0.0035366
0.0034934
-3.03857e-05
-4.70326e-05
-6.48506e-05
-7.33726e-05
-7.16257e-05
-6.26966e-05
-4.8108e-05
-2.83873e-05
-3.7155e-06
2.58985e-05
6.05664e-05
0.000100491
0.000145957
0.000197332
0.000255082
0.000319786
0.000392165
0.000473098
0.000563651
0.000665095
0.000778908
0.00090677
0.00105051
0.001212
0.001393
0.00159485
0.00181793
0.00206126
0.00232149
0.00259179
0.00286148
0.00311443
0.00333178
0.00349763
0.00360129
0.00363937
0.00362003
0.00356167
0.00349435
0.00344418
-6.40291e-05
-8.23952e-05
-0.00010327
-0.000115021
-0.000116173
-0.000109897
-9.78838e-05
-8.08013e-05
-5.8949e-05
-3.24358e-05
-1.23282e-06
3.47954e-05
7.58777e-05
0.00012234
0.000174618
0.000233282
0.000299063
0.000372887
0.000455915
0.000549575
0.000655597
0.000776039
0.000913275
0.00106995
0.00124884
0.00145253
0.00168289
0.00194045
0.0022227
0.00252268
0.00282822
0.0031188
0.00336751
0.00355127
0.00365442
0.00367101
0.0036144
0.00351823
0.00342801
0.00337113
-0.0001078
-0.000127475
-0.000150871
-0.000165602
-0.00016974
-0.000166434
-0.000157469
-0.000143608
-0.000125245
-0.000102575
-7.5649e-05
-4.44042e-05
-8.67686e-06
3.18006e-05
7.74149e-05
0.000128698
0.00018636
0.000251337
0.000324839
0.000408415
0.000504023
0.000614103
0.00074164
0.000890186
0.00106378
0.00126667
0.00150279
0.00177479
0.00208165
0.00241705
0.00276754
0.00310767
0.00340009
0.00361111
0.00371626
0.00370559
0.00359794
0.00344639
0.00332352
0.00326051
-0.00016129
-0.000181954
-0.000207369
-0.000224796
-0.000231911
-0.000231776
-0.00022622
-0.000216068
-0.000201786
-0.00018365
-0.000161788
-0.000136218
-0.000106854
-7.3511e-05
-3.58828e-05
6.48292e-06
5.4225e-05
0.000108223
0.000169668
0.000240155
0.000321801
0.000417387
0.00053051
0.000665695
0.000828393
0.00102481
0.0012615
0.0015434
0.0018719
0.00224278
0.0026426
0.00304138
0.00339085
0.00364053
0.00375279
0.0037144
0.00354898
0.00333003
0.00315729
0.00309914
-0.000223894
-0.000245272
-0.000272277
-0.000292118
-0.000302148
-0.000305311
-0.000303439
-0.000297402
-0.000287727
-0.00027476
-0.000258713
-0.000239694
-0.000217719
-0.000192713
-0.000164492
-0.00013274
-9.69628e-05
-5.64236e-05
-1.00571e-05
4.36587e-05
0.000106873
0.000182582
0.000274866
0.000389092
0.000531981
0.000711603
0.000936969
0.00121468
0.00154877
0.00194076
0.00237865
0.00282866
0.00323419
0.00352718
0.00366194
0.00362027
0.00341426
0.00314044
0.00292173
0.00287804
-0.000294867
-0.000316705
-0.000344938
-0.000366931
-0.000379793
-0.000386329
-0.000388353
-0.000386768
-0.000382153
-0.000374928
-0.000365395
-0.000353769
-0.00034019
-0.000324732
-0.000307387
-0.000288041
-0.000266432
-0.000242083
-0.000214194
-0.000181488
-0.000141992
-9.27587e-05
-2.95716e-05
5.32812e-05
0.000163137
0.000309053
0.000500345
0.000743379
0.00104185
0.00140806
0.00182651
0.00226029
0.00265982
0.00298599
0.0032191
0.00328113
0.00313146
0.00286824
0.00264934
0.00262316
-0.000373344
-0.000395416
-0.000424567
-0.000448472
-0.00046407
-0.000474015
-0.000480093
-0.000483229
-0.000484056
-0.000483071
-0.000480678
-0.000477216
-0.00047298
-0.000468234
-0.000463199
-0.000458044
-0.000452843
-0.000447507
-0.000441678
-0.000434552
-0.000424643
-0.00040949
-0.0003854
-0.000347269
-0.000288493
-0.000201808
-8.27282e-05
7.07689e-05
0.000261734
0.000482844
0.000729224
0.00101505
0.00137354
0.00180637
0.00223326
0.00253485
0.00264383
0.00255615
0.00245277
0.00238983
-0.000458368
-0.000480478
-0.000510278
-0.000535876
-0.000554105
-0.000567461
-0.000577694
-0.00058575
-0.000592318
-0.00059798
-0.000603251
-0.000608616
-0.000614555
-0.00062156
-0.000630144
-0.000640833
-0.000654142
-0.000670519
-0.000690242
-0.000713258
-0.00073897
-0.000766033
-0.000792247
-0.00081453
-0.000829437
-0.000836983
-0.000843782
-0.000862654
-0.000901455
-0.00094724
-0.000949012
-0.000823334
-0.000496538
3.63154e-05
0.000688687
0.00134867
0.00187239
0.00217768
0.00232038
0.00228546
-0.000548923
-0.000570901
-0.000601111
-0.000628197
-0.000648938
-0.00066567
-0.000680101
-0.000693199
-0.000705713
-0.000718314
-0.000731643
-0.000746347
-0.000763117
-0.000782712
-0.000805986
-0.000833892
-0.000867488
-0.000907893
-0.000956224
-0.00101347
-0.0010804
-0.0011575
-0.00124516
-0.00134384
-0.001457
-0.00159623
-0.00178415
-0.00204652
-0.00237853
-0.00271855
-0.00295016
-0.00295531
-0.00266614
-0.0020904
-0.0012774
-0.000300349
0.000700536
0.00155527
0.00214124
0.00252659
-0.000643952
-0.000665647
-0.000696058
-0.000724434
-0.00074755
-0.00076758
-0.000786186
-0.000804361
-0.000822914
-0.000842613
-0.000864231
-0.000888594
-0.000916618
-0.00094936
-0.000988047
-0.00103412
-0.00108925
-0.00115534
-0.00123452
-0.0013291
-0.00144162
-0.00157508
-0.00173333
-0.00192219
-0.00215475
-0.00245593
-0.00286547
-0.00340903
-0.00405089
-0.00467068
-0.00510103
-0.00521374
-0.00497078
-0.00437651
-0.00344386
-0.00221788
-0.00080869
0.00057164
0.00183465
0.00288338
-0.000742377
-0.00076366
-0.000794079
-0.000823551
-0.000848881
-0.000872083
-0.00089477
-0.000917957
-0.000942518
-0.000969319
-0.000999271
-0.00103338
-0.0010728
-0.00111889
-0.00117328
-0.00123791
-0.00131511
-0.00140763
-0.00151873
-0.0016522
-0.00181268
-0.00200607
-0.00224019
-0.00252771
-0.00289115
-0.00336871
-0.00401105
-0.00483123
-0.0057512
-0.00659579
-0.00717012
-0.00735736
-0.0071403
-0.00653124
-0.00554496
-0.00419982
-0.0025429
-0.000776917
0.000941662
0.00233646
-0.00084312
-0.00086388
-0.000894133
-0.000924504
-0.000951858
-0.00097805
-0.00100464
-0.00103267
-0.00106308
-0.00109682
-0.00113494
-0.00117862
-0.00122926
-0.00128851
-0.00135837
-0.00144131
-0.00154028
-0.0016589
-0.00180155
-0.00197355
-0.00218167
-0.00243477
-0.00274476
-0.00313086
-0.00362321
-0.00427002
-0.00512411
-0.00617874
-0.00731286
-0.00831137
-0.0089723
-0.00920322
-0.00900428
-0.00840195
-0.00742286
-0.0060717
-0.00436126
-0.0024513
-0.000697062
0.000692452
-0.000945122
-0.000965265
-0.000995193
-0.00102626
-0.00105542
-0.00108436
-0.00111459
-0.00114719
-0.00118312
-0.00122346
-0.00126937
-0.0013222
-0.00138354
-0.00145533
-0.00153992
-0.00164023
-0.0017598
-0.00190302
-0.00207529
-0.00228334
-0.0025358
-0.00284413
-0.00322393
-0.0036992
-0.00430545
-0.00509322
-0.00611333
-0.00733802
-0.00861439
-0.00970436
-0.0104123
-0.0106698
-0.0104921
-0.00991761
-0.00898664
-0.00770821
-0.00606807
-0.00417251
-0.00255228
-0.00139493
-0.00104736
-0.00106682
-0.00109628
-0.00112783
-0.00115853
-0.00118991
-0.00122345
-0.0012602
-0.00130123
-0.00134765
-0.00140075
-0.00146201
-0.00153322
-0.00161654
-0.00171461
-0.0018307
-0.00196885
-0.00213406
-0.00233255
-0.00257211
-0.0028628
-0.00321791
-0.00365577
-0.00420326
-0.00489873
-0.00578154
-0.00690865
-0.00823189
-0.00958243
-0.0107139
-0.0114413
-0.0117135
-0.0115594
-0.01103
-0.0101752
-0.00901863
-0.00754388
-0.00579783
-0.0043436
-0.00342037
-0.00114889
-0.00116759
-0.00119646
-0.00122828
-0.00126023
-0.00129369
-0.00133008
-0.00137049
-0.00141601
-0.00146783
-0.00152733
-0.00159609
-0.00167605
-0.00176951
-0.00187935
-0.00200909
-0.00216309
-0.00234677
-0.00256685
-0.00283179
-0.00315245
-0.00354302
-0.00402259
-0.00461816
-0.00536914
-0.00630593
-0.0074719
-0.00882219
-0.0101852
-0.0113174
-0.0120438
-0.0123234
-0.0121958
-0.0117234
-0.0109619
-0.00994526
-0.00867273
-0.00720666
-0.00593947
-0.00516968
-0.00124882
-0.00126675
-0.00129491
-0.00132678
-0.00135963
-0.00139474
-0.00143347
-0.00147692
-0.00152622
-0.00158261
-0.00164754
-0.00172266
-0.00180998
-0.00191194
-0.00203151
-0.00217236
-0.002339
-0.00253703
-0.00277336
-0.00305662
-0.00339781
-0.00381109
-0.00431481
-0.00493288
-0.00569713
-0.00664949
-0.00779665
-0.00910518
-0.0104267
-0.0115246
-0.0122323
-0.0125135
-0.0124161
-0.0120095
-0.0113524
-0.0104822
-0.00941303
-0.00821149
-0.00714821
-0.00651003
-0.00134639
-0.00136354
-0.0013909
-0.00142258
-0.00145595
-0.00149221
-0.00153267
-0.00157845
-0.0016307
-0.00169071
-0.00175995
-0.00184013
-0.0019333
-0.00204191
-0.00216897
-0.00231816
-0.00249399
-0.00270199
-0.00294894
-0.0032432
-0.00359521
-0.00401814
-0.00452842
-0.00514625
-0.00589753
-0.00681572
-0.00789586
-0.00910665
-0.0103457
-0.0113775
-0.0120494
-0.0123233
-0.0122593
-0.0119246
-0.0113766
-0.0106537
-0.00978211
-0.00882124
-0.0079467
-0.00741819
-0.00144096
-0.00145734
-0.00148384
-0.00151508
-0.00154855
-0.00158539
-0.00162688
-0.00167417
-0.00172844
-0.00179101
-0.00186335
-0.0019472
-0.00204458
-0.00215794
-0.0022902
-0.00244493
-0.00262648
-0.00284012
-0.00309224
-0.00339053
-0.00374437
-0.00416526
-0.00466703
-0.00526592
-0.0059811
-0.00683277
-0.00781715
-0.00890622
-0.00999997
-0.0109259
-0.0115534
-0.0118183
-0.0117902
-0.0115286
-0.0110848
-0.0104968
-0.00979715
-0.00903735
-0.00834401
-0.00791058
-0.00153203
-0.0015477
-0.00157329
-0.00160382
-0.00163692
-0.00167368
-0.00171543
-0.00176334
-0.00181862
-0.00188261
-0.00195679
-0.00204287
-0.00214283
-0.00225901
-0.00239423
-0.00255184
-0.0027359
-0.00295126
-0.00320369
-0.00349996
-0.00384807
-0.00425747
-0.0047389
-0.00530436
-0.00596621
-0.00673443
-0.00760353
-0.00854393
-0.00947769
-0.0102745
-0.0108161
-0.0110876
-0.0110958
-0.0109014
-0.0105506
-0.0100775
-0.00951819
-0.00891743
-0.00840068
-0.00803034
-0.00161929
-0.00163434
-0.00165898
-0.00168851
-0.00172068
-0.00175665
-0.0017978
-0.00184535
-0.00190056
-0.0019648
-0.00203952
-0.00212641
-0.00222735
-0.00234458
-0.00248069
-0.00263879
-0.00282254
-0.00303629
-0.00328505
-0.00357454
-0.0039112
-0.00430234
-0.00475572
-0.00527909
-0.00587887
-0.00655773
-0.00730695
-0.00809868
-0.00887305
-0.00953802
-0.0100064
-0.010249
-0.0102774
-0.0101335
-0.00985392
-0.00947066
-0.00901693
-0.00853776
-0.00817612
-0.00784151
-0.00170264
-0.00171719
-0.00174086
-0.00176904
-0.00179966
-0.001834
-0.00187357
-0.0019197
-0.00197373
-0.00203701
-0.00211101
-0.00219734
-0.00229779
-0.00241443
-0.00254965
-0.00270623
-0.00288735
-0.00309691
-0.00333904
-0.00361839
-0.00393994
-0.00430889
-0.00473027
-0.00520829
-0.00574472
-0.0063372
-0.00697443
-0.00763091
-0.00826064
-0.00879955
-0.00918609
-0.00939254
-0.00942486
-0.00930903
-0.00907282
-0.00874681
-0.00836316
-0.00795956
-0.00773639
-0.00739815
-0.00178225
-0.00179645
-0.00181912
-0.00184553
-0.00187382
-0.00190556
-0.00194246
-0.001986
-0.00203772
-0.00209885
-0.00217089
-0.00225539
-0.00235402
-0.00246867
-0.00260151
-0.00275507
-0.00293165
-0.00313528
-0.00336888
-0.00363613
-0.00394068
-0.00428592
-0.00467461
-0.00510814
-0.00558503
-0.00609965
-0.00663934
-0.00718096
-0.00768857
-0.00811704
-0.00842393
-0.00858722
-0.00860674
-0.00849588
-0.00827506
-0.00797373
-0.00762617
-0.00725257
-0.00711017
-0.00676046
-0.0018586
-0.00187263
-0.00189423
-0.0019183
-0.00194329
-0.00197127
-0.00200426
-0.00204397
-0.00209224
-0.00215003
-0.00221895
-0.00230047
-0.00239615
-0.00250767
-0.00263693
-0.00278607
-0.00295741
-0.00315375
-0.00337776
-0.00363213
-0.00391934
-0.00424129
-0.00459893
-0.00499158
-0.00541565
-0.00586356
-0.00632225
-0.00677096
-0.00718075
-0.00751824
-0.00775369
-0.00787027
-0.0078632
-0.00773754
-0.00750912
-0.00720634
-0.00686299
-0.00646567
-0.00635428
-0.0059575
-0.00193264
-0.00194668
-0.00196705
-0.00198793
-0.00200838
-0.00203124
-0.00205901
-0.00209395
-0.00213721
-0.00219033
-0.00225502
-0.00233257
-0.00242436
-0.00253186
-0.00265672
-0.00280077
-0.002966
-0.00315458
-0.00336864
-0.00361015
-0.00388068
-0.00418103
-0.00451076
-0.00486774
-0.00524705
-0.00564007
-0.00603382
-0.00640969
-0.00674355
-0.00700901
-0.00718361
-0.00725346
-0.0072105
-0.00705481
-0.00680026
-0.00647534
-0.00610864
-0.0056113
-0.0055159
-0.00497861
-0.00200595
-0.00202014
-0.00203886
-0.00205532
-0.00206953
-0.00208549
-0.00210651
-0.00213469
-0.00217148
-0.00221915
-0.00227876
-0.0023515
-0.00243861
-0.0025414
-0.00266127
-0.00279977
-0.00295856
-0.00313934
-0.00334373
-0.00357312
-0.00382833
-0.00410935
-0.00441487
-0.0047418
-0.00508447
-0.00543379
-0.00577703
-0.00609726
-0.00637353
-0.00658334
-0.00670774
-0.00673368
-0.00665027
-0.00645404
-0.00615773
-0.00578651
-0.00535156
-0.00472315
-0.00459289
-0.00377886
-0.00208115
-0.00209541
-0.00211155
-0.00212162
-0.00212705
-0.0021337
-0.00214566
-0.00216532
-0.002195
-0.00223612
-0.00228972
-0.00235685
-0.00243856
-0.00253597
-0.00265027
-0.00278278
-0.00293489
-0.00310799
-0.00330329
-0.00352166
-0.00376338
-0.00402784
-0.00431314
-0.00461565
-0.00492931
-0.00524492
-0.00555007
-0.00582898
-0.0060627
-0.00623057
-0.00631439
-0.00630004
-0.00617474
-0.00593249
-0.00558173
-0.00513882
-0.00459186
-0.00376507
-0.00360254
-0.00230244
-0.00216232
-0.00217615
-0.0021878
-0.00218817
-0.00218121
-0.00217558
-0.00217615
-0.00218581
-0.00220676
-0.00224012
-0.00228677
-0.00234749
-0.00242309
-0.00251441
-0.00262245
-0.00274834
-0.00289328
-0.00305846
-0.00324485
-0.00345305
-0.00368301
-0.00393375
-0.00420299
-0.0044867
-0.00477863
-0.00506964
-0.00534762
-0.00559744
-0.00580109
-0.00593852
-0.00599054
-0.00594052
-0.00577321
-0.00547767
-0.00505572
-0.00451052
-0.00379955
-0.00269578
-0.00252109
-0.000487141
-0.00225701
-0.00226851
-0.00227153
-0.00225614
-0.00223143
-0.00220932
-0.00219559
-0.00219319
-0.00220386
-0.00222838
-0.00226722
-0.00232078
-0.00238948
-0.00247393
-0.00257489
-0.00269332
-0.0028303
-0.00298692
-0.00316405
-0.00336223
-0.00358135
-0.00382037
-0.00407693
-0.00434691
-0.00462395
-0.00489895
-0.00515983
-0.0053916
-0.00557634
-0.00569374
-0.00572262
-0.0056422
-0.00543218
-0.0050739
-0.00455718
-0.00385766
-0.00291225
-0.00149863
-0.00112269
0.00176109
-0.00237686
-0.00238117
-0.00236646
-0.00232455
-0.00227388
-0.00222956
-0.00219783
-0.00218117
-0.00218033
-0.00219533
-0.00222596
-0.00227203
-0.00233351
-0.00241068
-0.00250407
-0.00261451
-0.00274305
-0.00289073
-0.00305844
-0.00324677
-0.00345577
-0.0036846
-0.00393113
-0.00419147
-0.00445935
-0.00472573
-0.0049783
-0.00520169
-0.00537712
-0.00548272
-0.00549391
-0.00538369
-0.00512334
-0.00468022
-0.004023
-0.003087
-0.00179954
5.31183e-05
0.000961816
0.00479353
-0.00255024
-0.00253301
-0.00247576
-0.0023879
-0.00230146
-0.00222931
-0.00217588
-0.00214328
-0.00213085
-0.00213712
-0.00216068
-0.00220053
-0.00225605
-0.00232712
-0.00241404
-0.00251755
-0.00263872
-0.00277868
-0.00293832
-0.00311833
-0.00331898
-0.00353973
-0.00377885
-0.00403287
-0.00429572
-0.00455844
-0.00480811
-0.0050283
-0.00519856
-0.00529387
-0.00528396
-0.00513216
-0.00479658
-0.00421617
-0.00333328
-0.0020216
-0.000193786
0.00243155
0.00439273
0.00978776
-0.00282179
-0.00273608
-0.00259733
-0.00244018
-0.00230088
-0.00219665
-0.00212493
-0.00208122
-0.00206188
-0.0020637
-0.00208408
-0.00212116
-0.00217384
-0.0022417
-0.00232484
-0.00242397
-0.00254021
-0.00267493
-0.00282905
-0.00300349
-0.00319853
-0.00341369
-0.00364747
-0.00389687
-0.00415572
-0.00441523
-0.00466144
-0.00487626
-0.00503663
-0.00511372
-0.0050695
-0.00485251
-0.00440049
-0.00360722
-0.0023718
-0.00045518
0.00226031
0.00629789
0.010417
0.0191796
-0.00332764
-0.00303392
-0.00272961
-0.002455
-0.00227257
-0.00215134
-0.00207116
-0.00202389
-0.00200339
-0.00200494
-0.00202508
-0.00206156
-0.00211306
-0.00217909
-0.00225973
-0.00235565
-0.002468
-0.00259787
-0.0027464
-0.0029159
-0.00310679
-0.00331803
-0.0035475
-0.00379257
-0.00404625
-0.00429884
-0.00453543
-0.00473872
-0.00488199
-0.00493214
-0.00484153
-0.00454137
-0.00393925
-0.00286647
-0.00115957
0.00163165
0.0057142
0.0121983
0.0204072
0.0354053
-0.00422301
-0.00320869
-0.00267415
-0.00234352
-0.00214851
-0.00202299
-0.00194398
-0.00190068
-0.00188461
-0.00188963
-0.00191193
-0.00194955
-0.0020015
-0.00206747
-0.00214758
-0.00224247
-0.00235297
-0.00248036
-0.00262608
-0.00279244
-0.00297903
-0.00318668
-0.00341279
-0.00365455
-0.0039031
-0.00415003
-0.00437824
-0.00457103
-0.00469645
-0.00472021
-0.00458463
-0.00421551
-0.00348986
-0.00219742
-1.42968e-05
0.00377676
0.00975668
0.019811
0.0343776
0.0581724
-0.00551505
-0.00164083
-0.000950677
-0.000971994
-0.000960496
-0.00090882
-0.000879895
-0.000891496
-0.000932413
-0.000989106
-0.0010553
-0.00113038
-0.00121543
-0.00131184
-0.00142027
-0.00154188
-0.00167785
-0.00183024
-0.00200164
-0.00219317
-0.00240391
-0.00263297
-0.00287896
-0.00313807
-0.00340373
-0.00366491
-0.0039071
-0.00410857
-0.00423941
-0.00425423
-0.00409465
-0.00367513
-0.00292806
-0.00159512
0.000785836
0.00533638
0.0135692
0.027578
0.0493402
0.0783136
)
;

boundaryField
{
    movingWall
    {
        type            zeroGradient;
    }
    fixedWalls
    {
        type            zeroGradient;
    }
    frontAndBack
    {
        type            empty;
    }
}


// ************************************************************************* //
