/*--------------------------------*- C++ -*----------------------------------*\
  =========                 |
  \\      /  F ield         | OpenFOAM: The Open Source CFD Toolbox
   \\    /   O peration     | Website:  https://openfoam.org
    \\  /    A nd           | Version:  12
     \\/     M anipulation  |
\*---------------------------------------------------------------------------*/
FoamFile
{
    format      ascii;
    class       surfaceScalarField;
    location    "1";
    object      phi;
}
// * * * * * * * * * * * * * * * * * * * * * * * * * * * * * * * * * * * * * //

dimensions      [0 3 -1 0 0 0 0];

internalField   nonuniform List<scalar> 
3120
(
2.06008e-09
-2.05951e-09
-3.33017e-09
5.39026e-09
-1.68473e-08
1.35172e-08
-3.61152e-08
1.92679e-08
-5.88204e-08
2.27052e-08
-8.34895e-08
2.46691e-08
-1.09295e-07
2.5805e-08
-1.35787e-07
2.64925e-08
-1.62739e-07
2.69522e-08
-1.90053e-07
2.73142e-08
-2.17709e-07
2.76551e-08
-2.45725e-07
2.80163e-08
-2.74137e-07
2.84122e-08
-3.02971e-07
2.88341e-08
-3.32223e-07
2.92521e-08
-3.61838e-07
2.96148e-08
-3.91686e-07
2.98485e-08
-4.21542e-07
2.98557e-08
-4.51055e-07
2.95134e-08
-4.79729e-07
2.86733e-08
-5.06893e-07
2.71644e-08
-5.31689e-07
2.47964e-08
-5.53037e-07
2.13479e-08
-5.69597e-07
1.65597e-08
-5.80001e-07
1.04039e-08
-5.83454e-07
3.45335e-09
-5.77966e-07
-5.48777e-09
-5.62437e-07
-1.5529e-08
-5.35946e-07
-2.64911e-08
-4.9816e-07
-3.77859e-08
-4.49493e-07
-4.86672e-08
-3.91212e-07
-5.8281e-08
-3.25463e-07
-6.57494e-08
-2.55142e-07
-7.03206e-08
-1.83976e-07
-7.11659e-08
-1.16621e-07
-6.73557e-08
-5.88075e-08
-5.7813e-08
-1.73582e-08
-4.14493e-08
1.47169e-09
-1.88299e-08
1.4717e-09
-5.53526e-09
3.47575e-09
-2.25313e-08
2.23864e-08
-4.82892e-08
3.92751e-08
-7.96208e-08
5.05994e-08
-1.14498e-07
5.75822e-08
-1.5165e-07
6.18212e-08
-1.9029e-07
6.44453e-08
-2.29939e-07
6.61409e-08
-2.70309e-07
6.73225e-08
-3.11234e-07
6.82393e-08
-3.52613e-07
6.90346e-08
-3.94375e-07
6.97782e-08
-4.36445e-07
7.04822e-08
-4.7872e-07
7.11085e-08
-5.2104e-07
7.15724e-08
-5.63168e-07
7.17427e-08
-6.04761e-07
7.14418e-08
-6.4535e-07
7.04447e-08
-6.84318e-07
6.84809e-08
-7.20883e-07
6.52387e-08
-7.54094e-07
6.03755e-08
-7.8283e-07
5.35326e-08
-8.05835e-07
4.43528e-08
-8.21808e-07
3.2532e-08
-8.29405e-07
1.80011e-08
-8.26726e-07
7.74217e-10
-8.13056e-07
-1.91575e-08
-7.8717e-07
-4.14149e-08
-7.48541e-07
-6.51203e-08
-6.97137e-07
-8.91896e-08
-6.33581e-07
-1.12224e-07
-5.5921e-07
-1.32652e-07
-4.76202e-07
-1.48757e-07
-3.87644e-07
-1.58879e-07
-2.97296e-07
-1.61514e-07
-2.09462e-07
-1.55191e-07
-1.28993e-07
-1.38282e-07
-6.16203e-08
-1.08822e-07
-1.53641e-08
-6.5086e-08
-1.38924e-08
-1.42375e-08
1.77132e-08
-4.00395e-08
4.81883e-08
-7.11069e-08
7.03425e-08
-1.05748e-07
8.52402e-08
-1.43154e-07
9.49888e-08
-1.82682e-07
1.01349e-07
-2.23819e-07
1.05582e-07
-2.66181e-07
1.08503e-07
-3.09497e-07
1.10638e-07
-3.53572e-07
1.12315e-07
-3.98261e-07
1.13723e-07
-4.43431e-07
1.14949e-07
-4.88943e-07
1.15994e-07
-5.34622e-07
1.16788e-07
-5.80239e-07
1.17188e-07
-6.25482e-07
1.16987e-07
-6.69946e-07
1.15905e-07
-7.131e-07
1.13599e-07
-7.5428e-07
1.09661e-07
-7.92675e-07
1.03634e-07
-8.27321e-07
9.50218e-08
-8.57111e-07
8.33222e-08
-8.80818e-07
6.80605e-08
-8.97142e-07
4.88558e-08
-9.0466e-07
2.5519e-08
-9.01936e-07
-1.94982e-09
-8.87719e-07
-3.33742e-08
-8.61035e-07
-6.80995e-08
-8.21194e-07
-1.04961e-07
-7.68087e-07
-1.42296e-07
-7.0229e-07
-1.78021e-07
-6.25233e-07
-2.09709e-07
-5.39196e-07
-2.34794e-07
-4.4723e-07
-2.50845e-07
-3.5297e-07
-2.55774e-07
-2.60289e-07
-2.47871e-07
-1.72959e-07
-2.25612e-07
-9.45902e-08
-1.8719e-07
-3.09139e-08
-1.28762e-07
-4.48063e-08
-2.07165e-08
3.84298e-08
-5.19818e-08
7.94537e-08
-8.62355e-08
1.04596e-07
-1.22535e-07
1.2154e-07
-1.60771e-07
1.33224e-07
-2.00768e-07
1.41346e-07
-2.42291e-07
1.47105e-07
-2.85111e-07
1.51323e-07
-3.29024e-07
1.54551e-07
-3.73859e-07
1.57149e-07
-4.19461e-07
1.59326e-07
-4.65682e-07
1.61169e-07
-5.12357e-07
1.6267e-07
-5.59292e-07
1.63723e-07
-6.0624e-07
1.64137e-07
-6.52885e-07
1.63631e-07
-6.98819e-07
1.61839e-07
-7.4353e-07
1.58309e-07
-7.86379e-07
1.5251e-07
-8.26592e-07
1.43847e-07
-8.63247e-07
1.31677e-07
-8.95276e-07
1.15351e-07
-9.21467e-07
9.42516e-08
-9.4048e-07
6.7869e-08
-9.50846e-07
3.58853e-08
-9.51054e-07
-1.74216e-09
-9.39647e-07
-4.47814e-08
-9.15363e-07
-9.23832e-08
-8.77231e-07
-1.43093e-07
-8.24799e-07
-1.94728e-07
-7.5835e-07
-2.44471e-07
-6.79156e-07
-2.88902e-07
-5.89553e-07
-3.24398e-07
-4.92794e-07
-3.47603e-07
-3.92808e-07
-3.5576e-07
-2.93713e-07
-3.46966e-07
-1.99212e-07
-3.20113e-07
-1.12439e-07
-2.73963e-07
-3.88891e-08
-2.02312e-07
-8.36953e-08
-2.47188e-08
6.31486e-08
-5.93054e-08
1.1404e-07
-9.57351e-08
1.41026e-07
-1.33257e-07
1.59062e-07
-1.72029e-07
1.71997e-07
-2.12155e-07
1.81472e-07
-2.53618e-07
1.88568e-07
-2.96336e-07
1.94041e-07
-3.40199e-07
1.98414e-07
-3.85087e-07
2.02037e-07
-4.30876e-07
2.05115e-07
-4.77436e-07
2.0773e-07
-5.24619e-07
2.09852e-07
-5.72245e-07
2.11349e-07
-6.20092e-07
2.11984e-07
-6.67876e-07
2.11415e-07
-7.15236e-07
2.09199e-07
-7.61713e-07
2.04786e-07
-8.06735e-07
1.97532e-07
-8.49593e-07
1.86705e-07
-8.89427e-07
1.71511e-07
-9.25203e-07
1.51128e-07
-9.55707e-07
1.24755e-07
-9.79528e-07
9.16902e-08
-9.95064e-07
5.14215e-08
-1.00057e-06
3.76459e-09
-9.94242e-07
-5.111e-08
-9.74319e-07
-1.12307e-07
-9.3926e-07
-1.78152e-07
-8.88016e-07
-2.45972e-07
-8.20339e-07
-3.12147e-07
-7.37176e-07
-3.72066e-07
-6.40981e-07
-4.20593e-07
-5.35553e-07
-4.53031e-07
-4.25727e-07
-4.65586e-07
-3.1675e-07
-4.55943e-07
-2.13336e-07
-4.23527e-07
-1.19297e-07
-3.68002e-07
-4.07338e-08
-2.80875e-07
-1.24429e-07
-2.6917e-08
9.00656e-08
-6.34013e-08
1.50525e-07
-1.01254e-07
1.78878e-07
-1.39675e-07
1.97483e-07
-1.78867e-07
2.11189e-07
-2.1906e-07
2.21665e-07
-2.60376e-07
2.29885e-07
-3.02853e-07
2.36518e-07
-3.46472e-07
2.42033e-07
-3.91182e-07
2.46747e-07
-4.36913e-07
2.50847e-07
-4.8358e-07
2.54397e-07
-5.31078e-07
2.5735e-07
-5.79274e-07
2.59546e-07
-6.28002e-07
2.60711e-07
-6.77042e-07
2.60455e-07
-7.2611e-07
2.58267e-07
-7.74835e-07
2.53511e-07
-8.22737e-07
2.45434e-07
-8.692e-07
2.33168e-07
-9.13438e-07
2.15749e-07
-9.5446e-07
1.9215e-07
-9.91036e-07
1.61331e-07
-1.02166e-06
1.22315e-07
-1.04454e-06
7.42965e-08
-1.05756e-06
1.67905e-08
-1.05845e-06
-5.0221e-08
-1.04473e-06
-1.26027e-07
-1.01401e-06
-2.08872e-07
-9.64316e-07
-2.95666e-07
-8.94542e-07
-3.81921e-07
-8.05074e-07
-4.61534e-07
-6.98475e-07
-5.27192e-07
-5.79507e-07
-5.71999e-07
-4.54764e-07
-5.90329e-07
-3.31869e-07
-5.78838e-07
-2.17835e-07
-5.37562e-07
-1.17831e-07
-4.68006e-07
-3.81666e-08
-3.6054e-07
-1.62596e-07
-2.7931e-08
1.17997e-07
-6.534e-08
1.87934e-07
-1.03999e-07
2.17537e-07
-1.42986e-07
2.3647e-07
-1.8245e-07
2.50652e-07
-2.22652e-07
2.61866e-07
-2.6379e-07
2.71024e-07
-3.05987e-07
2.78714e-07
-3.49303e-07
2.85349e-07
-3.9376e-07
2.91204e-07
-4.39353e-07
2.9644e-07
-4.86059e-07
3.01102e-07
-5.33836e-07
3.05126e-07
-5.82622e-07
3.08332e-07
-6.3233e-07
3.10419e-07
-6.82832e-07
3.10958e-07
-7.33949e-07
3.09384e-07
-7.85426e-07
3.04988e-07
-8.36904e-07
2.96913e-07
-8.87884e-07
2.84148e-07
-9.37679e-07
2.65544e-07
-9.85359e-07
2.3983e-07
-1.02969e-06
2.05663e-07
-1.06907e-06
1.61698e-07
-1.10148e-06
1.06707e-07
-1.12444e-06
3.97433e-08
-1.13501e-06
-3.96484e-08
-1.12986e-06
-1.31181e-07
-1.10543e-06
-2.333e-07
-1.0584e-06
-3.4269e-07
-9.86271e-07
-4.54055e-07
-8.88393e-07
-5.59412e-07
-7.67142e-07
-6.48442e-07
-6.28549e-07
-7.10592e-07
-4.82006e-07
-7.36872e-07
-3.39407e-07
-7.21437e-07
-2.12018e-07
-6.64951e-07
-1.0742e-07
-5.72603e-07
-3.12048e-08
-4.36755e-07
-1.93801e-07
-2.81753e-08
1.46172e-07
-6.58186e-08
2.25577e-07
-1.04781e-07
2.56499e-07
-1.44006e-07
2.75696e-07
-1.83553e-07
2.90199e-07
-2.23666e-07
3.0198e-07
-2.64575e-07
3.11933e-07
-3.06456e-07
3.20596e-07
-3.49436e-07
3.28329e-07
-3.93604e-07
3.35372e-07
-4.39024e-07
3.41859e-07
-4.85743e-07
3.47821e-07
-5.33796e-07
3.5318e-07
-5.83211e-07
3.57746e-07
-6.33996e-07
3.61204e-07
-6.8614e-07
3.63102e-07
-7.39592e-07
3.62836e-07
-7.9424e-07
3.59636e-07
-8.49874e-07
3.52547e-07
-9.06145e-07
3.40419e-07
-9.625e-07
3.21899e-07
-1.01811e-06
2.9544e-07
-1.07178e-06
2.59337e-07
-1.12188e-06
2.11791e-07
-1.16619e-06
1.51019e-07
-1.20187e-06
7.54204e-08
-1.22535e-06
-1.61634e-08
-1.23229e-06
-1.24247e-07
-1.21769e-06
-2.47891e-07
-1.17636e-06
-3.84027e-07
-1.10354e-06
-5.2687e-07
-9.96605e-07
-6.66348e-07
-8.56934e-07
-7.88114e-07
-6.91484e-07
-8.76042e-07
-5.13348e-07
-9.15008e-07
-3.41068e-07
-8.93718e-07
-1.93958e-07
-8.1206e-07
-8.50555e-08
-6.81506e-07
-1.81615e-08
-5.03649e-07
-2.11962e-07
-2.79052e-08
1.74077e-07
-6.52782e-08
2.6295e-07
-1.04136e-07
2.95357e-07
-1.43292e-07
3.14852e-07
-1.82712e-07
3.29619e-07
-2.22601e-07
3.41869e-07
-2.63194e-07
3.52525e-07
-3.04698e-07
3.621e-07
-3.47291e-07
3.70922e-07
-3.91121e-07
3.79202e-07
-4.36318e-07
3.87057e-07
-4.83007e-07
3.94509e-07
-5.31307e-07
4.0148e-07
-5.81342e-07
4.07781e-07
-6.33236e-07
4.13098e-07
-6.87107e-07
4.16973e-07
-7.43055e-07
4.18783e-07
-8.01132e-07
4.17713e-07
-8.61311e-07
4.12726e-07
-9.23428e-07
4.02536e-07
-9.87115e-07
3.85586e-07
-1.05171e-06
3.60038e-07
-1.11617e-06
3.23793e-07
-1.17892e-06
2.74539e-07
-1.23774e-06
2.09838e-07
-1.28958e-06
1.27264e-07
-1.3304e-06
2.46531e-08
-1.35491e-06
-9.97348e-08
-1.35655e-06
-2.46244e-07
-1.32767e-06
-4.12911e-07
-1.26026e-06
-5.94284e-07
-1.14801e-06
-7.78593e-07
-9.89541e-07
-9.46584e-07
-7.90889e-07
-1.07469e-06
-5.68436e-07
-1.13746e-06
-3.49633e-07
-1.11252e-06
-1.68267e-07
-9.93427e-07
-5.03296e-08
-7.99443e-07
1.03369e-09
-5.55012e-07
-2.10928e-07
-2.72629e-08
2.0134e-07
-6.40061e-08
2.99693e-07
-1.02426e-07
3.33777e-07
-1.41234e-07
3.5366e-07
-1.80311e-07
3.68696e-07
-2.19813e-07
3.81371e-07
-2.59966e-07
3.92678e-07
-3.00995e-07
4.03129e-07
-3.43112e-07
4.13039e-07
-3.86517e-07
4.22607e-07
-4.31403e-07
4.31943e-07
-4.77967e-07
4.41074e-07
-5.26419e-07
4.49932e-07
-5.76984e-07
4.58347e-07
-6.29907e-07
4.66022e-07
-6.8545e-07
4.72516e-07
-7.43874e-07
4.77208e-07
-8.0542e-07
4.79259e-07
-8.70268e-07
4.77574e-07
-9.38484e-07
4.70752e-07
-1.00995e-06
4.57051e-07
-1.08428e-06
4.34366e-07
-1.16071e-06
4.00226e-07
-1.23799e-06
3.51815e-07
-1.31417e-06
2.86019e-07
-1.3864e-06
1.99495e-07
-1.45056e-06
8.88147e-08
-1.50098e-06
-4.93189e-08
-1.52969e-06
-2.17526e-07
-1.52636e-06
-4.16246e-07
-1.47871e-06
-6.41937e-07
-1.37463e-06
-8.82665e-07
-1.20651e-06
-1.11471e-06
-9.75745e-07
-1.30546e-06
-6.99088e-07
-1.41412e-06
-4.11636e-07
-1.39997e-06
-1.66334e-07
-1.23873e-06
-1.68983e-08
-9.48879e-07
2.3791e-08
-5.95702e-07
-1.87137e-07
-2.63433e-08
2.27683e-07
-6.21912e-08
3.35541e-07
-9.98973e-08
3.71483e-07
-1.38105e-07
3.91868e-07
-1.7662e-07
4.07211e-07
-2.15556e-07
4.20307e-07
-2.55116e-07
4.32238e-07
-2.95533e-07
4.43546e-07
-3.37044e-07
4.5455e-07
-3.79889e-07
4.65452e-07
-4.24318e-07
4.76372e-07
-4.70598e-07
4.87353e-07
-5.19022e-07
4.98356e-07
-5.69918e-07
5.09243e-07
-6.23654e-07
5.19758e-07
-6.80636e-07
5.29498e-07
-7.41295e-07
5.37867e-07
-8.06072e-07
5.44036e-07
-8.75378e-07
5.4688e-07
-9.49554e-07
5.44927e-07
-1.02881e-06
5.36308e-07
-1.11317e-06
5.18723e-07
-1.20237e-06
4.89433e-07
-1.2958e-06
4.45239e-07
-1.39225e-06
3.82472e-07
-1.48971e-06
2.96957e-07
-1.58487e-06
1.83967e-07
-1.67266e-06
3.84734e-08
-1.74468e-06
-1.45503e-07
-1.78801e-06
-3.72914e-07
-1.78536e-06
-6.44589e-07
-1.71667e-06
-9.51355e-07
-1.56434e-06
-1.26704e-06
-1.32168e-06
-1.54812e-06
-9.98442e-07
-1.73736e-06
-6.26204e-07
-1.77221e-06
-2.70364e-07
-1.59457e-06
-2.92735e-08
-1.18997e-06
3.54195e-08
-6.60395e-07
-1.51718e-07
-2.52209e-08
2.52904e-07
-5.99564e-08
3.70277e-07
-9.67156e-08
4.08242e-07
-1.34094e-07
4.29246e-07
-1.71838e-07
4.44956e-07
-2.10015e-07
4.58484e-07
-2.48807e-07
4.7103e-07
-2.88443e-07
4.83182e-07
-3.29176e-07
4.95283e-07
-3.71278e-07
5.07554e-07
-4.15044e-07
5.20138e-07
-4.60802e-07
5.33111e-07
-5.08922e-07
5.46476e-07
-5.59829e-07
5.6015e-07
-6.14005e-07
5.73934e-07
-6.71993e-07
5.87486e-07
-7.34392e-07
6.00267e-07
-8.01843e-07
6.11487e-07
-8.75003e-07
6.20041e-07
-9.54526e-07
6.2445e-07
-1.04103e-06
6.22814e-07
-1.1351e-06
6.12787e-07
-1.23722e-06
5.91553e-07
-1.34777e-06
5.55791e-07
-1.46688e-06
5.01587e-07
-1.59422e-06
4.24295e-07
-1.72858e-06
3.18323e-07
-1.86624e-06
1.76133e-07
-1.99998e-06
-1.17565e-08
-2.11277e-06
-2.60128e-07
-2.18194e-06
-5.7542e-07
-2.17858e-06
-9.54708e-07
-2.07547e-06
-1.37015e-06
-1.85744e-06
-1.76615e-06
-1.52231e-06
-2.07249e-06
-1.0843e-06
-2.21022e-06
-5.92299e-07
-2.08657e-06
-1.6875e-07
-1.61352e-06
1.30301e-08
-8.42175e-07
-1.38688e-07
-2.39456e-08
2.7685e-07
-5.73871e-08
4.03718e-07
-9.29989e-08
4.43854e-07
-1.29342e-07
4.65589e-07
-1.66112e-07
4.81726e-07
-2.03334e-07
4.95706e-07
-2.41165e-07
5.08861e-07
-2.79824e-07
5.21841e-07
-3.1957e-07
5.35029e-07
-3.60696e-07
5.4868e-07
-4.03532e-07
5.62975e-07
-4.48457e-07
5.78035e-07
-4.95903e-07
5.93923e-07
-5.46376e-07
6.10622e-07
-6.00457e-07
6.28015e-07
-6.5881e-07
6.45839e-07
-7.22186e-07
6.63642e-07
-7.9141e-07
6.80711e-07
-8.67386e-07
6.96017e-07
-9.51098e-07
7.08162e-07
-1.04364e-06
7.15352e-07
-1.14624e-06
7.15391e-07
-1.26036e-06
7.05673e-07
-1.3877e-06
6.83126e-07
-1.53017e-06
6.44061e-07
-1.68985e-06
5.83973e-07
-1.86812e-06
4.96595e-07
-2.06254e-06
3.70551e-07
-2.26151e-06
1.87219e-07
-2.44107e-06
-8.05661e-08
-2.56437e-06
-4.52127e-07
-2.60348e-06
-9.15596e-07
-2.55139e-06
-1.42224e-06
-2.39867e-06
-1.91886e-06
-2.11812e-06
-2.35304e-06
-1.68913e-06
-2.63921e-06
-1.12431e-06
-2.65139e-06
-5.00872e-07
-2.23695e-06
-7.46371e-08
-1.26841e-06
-2.13325e-07
-2.25519e-08
2.99402e-07
-5.45465e-08
4.35713e-07
-8.88367e-08
4.78144e-07
-1.23958e-07
5.00711e-07
-1.59562e-07
5.17329e-07
-1.95633e-07
5.31777e-07
-2.32299e-07
5.45527e-07
-2.69764e-07
5.59306e-07
-3.08283e-07
5.73549e-07
-3.48161e-07
5.88558e-07
-3.89749e-07
6.04563e-07
-4.33459e-07
6.21745e-07
-4.79771e-07
6.40235e-07
-5.29248e-07
6.601e-07
-5.82548e-07
6.81314e-07
-6.40427e-07
7.03719e-07
-7.03754e-07
7.26969e-07
-7.73512e-07
7.50469e-07
-8.50822e-07
7.73327e-07
-9.36984e-07
7.94325e-07
-1.03356e-06
8.11926e-07
-1.14247e-06
8.24306e-07
-1.26617e-06
8.29365e-07
-1.40768e-06
8.24645e-07
-1.57074e-06
8.07113e-07
-1.75939e-06
7.72628e-07
-1.97514e-06
7.12347e-07
-2.21078e-06
6.06189e-07
-2.44051e-06
4.16944e-07
-2.62016e-06
9.90919e-08
-2.71915e-06
-3.5314e-07
-2.74475e-06
-8.90001e-07
-2.71354e-06
-1.45345e-06
-2.62038e-06
-2.01202e-06
-2.44408e-06
-2.52934e-06
-2.13771e-06
-2.94559e-06
-1.64901e-06
-3.14008e-06
-9.69269e-07
-2.9167e-06
-2.53586e-07
-1.98409e-06
-4.66911e-07
-2.1067e-08
3.20469e-07
-5.14865e-08
4.66132e-07
-8.43044e-08
5.10962e-07
-1.18038e-07
5.34444e-07
-1.52295e-07
5.51586e-07
-1.87022e-07
5.66505e-07
-2.22315e-07
5.8082e-07
-2.58356e-07
5.95346e-07
-2.95389e-07
6.10582e-07
-3.33715e-07
6.26884e-07
-3.73694e-07
6.44541e-07
-4.15752e-07
6.63803e-07
-4.60396e-07
6.84878e-07
-5.0822e-07
7.07924e-07
-5.59925e-07
7.33019e-07
-6.16322e-07
7.60117e-07
-6.78352e-07
7.88999e-07
-7.47104e-07
8.19221e-07
-8.23861e-07
8.50083e-07
-9.10171e-07
8.80635e-07
-1.00798e-06
9.09733e-07
-1.11978e-06
9.36107e-07
-1.24879e-06
9.58378e-07
-1.39905e-06
9.74908e-07
-1.57541e-06
9.8347e-07
-1.78197e-06
9.79187e-07
-2.01661e-06
9.46983e-07
-2.26206e-06
8.51642e-07
-2.4795e-06
6.3438e-07
-2.63054e-06
2.50133e-07
-2.70821e-06
-2.75465e-07
-2.73182e-06
-8.66388e-07
-2.70827e-06
-1.477e-06
-2.63578e-06
-2.08451e-06
-2.50605e-06
-2.65907e-06
-2.29467e-06
-3.15698e-06
-1.94734e-06
-3.48741e-06
-1.38535e-06
-3.47868e-06
-5.4723e-07
-2.82221e-06
-1.01414e-06
-1.95152e-08
3.39984e-07
-4.82549e-08
4.94872e-07
-7.94729e-08
5.4218e-07
-1.11671e-07
5.66642e-07
-1.44417e-07
5.84333e-07
-1.77618e-07
5.99705e-07
-2.11333e-07
6.14535e-07
-2.45716e-07
6.29729e-07
-2.8099e-07
6.45856e-07
-3.17443e-07
6.63336e-07
-3.55424e-07
6.82523e-07
-3.95358e-07
7.03737e-07
-4.3775e-07
7.2727e-07
-4.83197e-07
7.53372e-07
-5.32405e-07
7.82226e-07
-5.86194e-07
8.13905e-07
-6.4552e-07
8.48325e-07
-7.1151e-07
8.8521e-07
-7.85515e-07
9.24088e-07
-8.69217e-07
9.64337e-07
-9.64765e-07
1.00528e-06
-1.07495e-06
1.04629e-06
-1.20333e-06
1.08676e-06
-1.35431e-06
1.12588e-06
-1.53265e-06
1.16182e-06
-1.74021e-06
1.18674e-06
-1.96919e-06
1.17597e-06
-2.19326e-06
1.07571e-06
-2.37231e-06
8.13429e-07
-2.4833e-06
3.61123e-07
-2.53512e-06
-2.23644e-07
-2.5461e-06
-8.55404e-07
-2.52111e-06
-1.502e-06
-2.46333e-06
-2.14229e-06
-2.36831e-06
-2.75409e-06
-2.21582e-06
-3.30947e-06
-1.96041e-06
-3.74282e-06
-1.53912e-06
-3.89997e-06
-8.31332e-07
-3.53e-06
-1.84547e-06
-1.7921e-08
3.57905e-07
-4.4901e-08
5.21852e-07
-7.44156e-08
5.71695e-07
-1.04954e-07
5.9718e-07
-1.36044e-07
6.15423e-07
-1.6755e-07
6.3121e-07
-1.99491e-07
6.46476e-07
-2.31987e-07
6.62226e-07
-2.65231e-07
6.79101e-07
-2.99484e-07
6.97588e-07
-3.35071e-07
7.1811e-07
-3.72393e-07
7.41059e-07
-4.1193e-07
7.66807e-07
-4.54251e-07
7.95693e-07
-5.00024e-07
8.27999e-07
-5.50029e-07
8.6391e-07
-6.05176e-07
9.03473e-07
-6.66545e-07
9.46579e-07
-7.35448e-07
9.92991e-07
-8.1353e-07
1.04242e-06
-9.02904e-07
1.09466e-06
-1.00628e-06
1.14967e-06
-1.12701e-06
1.20749e-06
-1.26905e-06
1.26792e-06
-1.43573e-06
1.3285e-06
-1.62546e-06
1.37647e-06
-1.82566e-06
1.37617e-06
-2.0073e-06
1.25736e-06
-2.13859e-06
9.44714e-07
-2.21111e-06
4.33643e-07
-2.24039e-06
-1.9436e-07
-2.23955e-06
-8.56243e-07
-2.21626e-06
-1.52528e-06
-2.17481e-06
-2.18375e-06
-2.10813e-06
-2.82076e-06
-1.99466e-06
-3.42293e-06
-1.79083e-06
-3.94665e-06
-1.46222e-06
-4.22859e-06
-9.27171e-07
-4.06505e-06
-2.77264e-06
-1.63105e-08
3.74215e-07
-4.14784e-08
5.4702e-07
-6.92135e-08
5.9943e-07
-9.79938e-08
6.25961e-07
-1.27306e-07
6.44736e-07
-1.56968e-07
6.60872e-07
-1.86958e-07
6.76465e-07
-2.17353e-07
6.9262e-07
-2.48307e-07
7.10055e-07
-2.80043e-07
7.29324e-07
-3.1285e-07
7.50917e-07
-3.47083e-07
7.75293e-07
-3.83176e-07
8.02899e-07
-4.21636e-07
8.34154e-07
-4.6306e-07
8.69423e-07
-5.08137e-07
9.08987e-07
-5.57669e-07
9.53005e-07
-6.12605e-07
1.00151e-06
-6.74095e-07
1.05448e-06
-7.43574e-07
1.1119e-06
-8.22852e-07
1.17393e-06
-9.14175e-07
1.24099e-06
-1.02017e-06
1.31349e-06
-1.14365e-06
1.39139e-06
-1.28566e-06
1.47052e-06
-1.44188e-06
1.53268e-06
-1.5987e-06
1.53299e-06
-1.73172e-06
1.39037e-06
-1.82092e-06
1.03391e-06
-1.86711e-06
4.79838e-07
-1.88473e-06
-1.76744e-07
-1.88128e-06
-8.59693e-07
-1.86457e-06
-1.54199e-06
-1.83783e-06
-2.21049e-06
-1.79484e-06
-2.86376e-06
-1.71565e-06
-3.50212e-06
-1.56118e-06
-4.10112e-06
-1.27127e-06
-4.51849e-06
-8.02222e-07
-4.5341e-06
-3.57486e-06
-1.47129e-08
3.88928e-07
-3.80478e-08
5.70355e-07
-6.39586e-08
6.2534e-07
-9.09125e-08
6.52915e-07
-1.18353e-07
6.72176e-07
-1.4605e-07
6.8857e-07
-1.73934e-07
7.04349e-07
-2.02036e-07
7.20722e-07
-2.30464e-07
7.38483e-07
-2.59393e-07
7.58253e-07
-2.89061e-07
7.80584e-07
-3.19766e-07
8.05998e-07
-3.5187e-07
8.35003e-07
-3.85799e-07
8.68082e-07
-4.22041e-07
9.05666e-07
-4.61157e-07
9.48103e-07
-5.03787e-07
9.95634e-07
-5.50672e-07
1.0484e-06
-6.02697e-07
1.10651e-06
-6.6093e-07
1.17013e-06
-7.26658e-07
1.23966e-06
-8.01355e-07
1.31569e-06
-8.86557e-07
1.39869e-06
-9.83499e-07
1.48833e-06
-1.09137e-06
1.57839e-06
-1.2045e-06
1.64581e-06
-1.31231e-06
1.64079e-06
-1.39916e-06
1.47722e-06
-1.45613e-06
1.09089e-06
-1.4874e-06
5.11102e-07
-1.5011e-06
-1.6304e-07
-1.50152e-06
-8.59278e-07
-1.49487e-06
-1.54864e-06
-1.48415e-06
-2.2212e-06
-1.46493e-06
-2.88298e-06
-1.42033e-06
-3.54672e-06
-1.31587e-06
-4.20559e-06
-1.07167e-06
-4.76269e-06
-6.69152e-07
-4.93661e-06
-4.24402e-06
-1.31614e-08
4.0209e-07
-3.4679e-08
5.91873e-07
-5.87565e-08
6.49418e-07
-8.38504e-08
6.78008e-07
-1.09359e-07
6.97685e-07
-1.35001e-07
7.14212e-07
-1.60656e-07
7.30004e-07
-1.86304e-07
7.4637e-07
-2.12002e-07
7.64181e-07
-2.3787e-07
7.84122e-07
-2.64087e-07
8.068e-07
-2.9088e-07
8.32792e-07
-3.18528e-07
8.62651e-07
-3.47353e-07
8.96907e-07
-3.77718e-07
9.36031e-07
-4.10022e-07
9.80408e-07
-4.44706e-07
1.03032e-06
-4.82256e-07
1.08595e-06
-5.23214e-07
1.14746e-06
-5.68185e-07
1.2151e-06
-6.17796e-07
1.28927e-06
-6.726e-07
1.37049e-06
-7.32871e-07
1.45896e-06
-7.98233e-07
1.5537e-06
-8.67488e-07
1.64765e-06
-9.33275e-07
1.7116e-06
-9.91797e-07
1.69931e-06
-1.03742e-06
1.52284e-06
-1.07016e-06
1.12363e-06
-1.0937e-06
5.34641e-07
-1.10964e-06
-1.47094e-07
-1.11911e-06
-8.49812e-07
-1.12669e-06
-1.54107e-06
-1.13468e-06
-2.21321e-06
-1.13891e-06
-2.87875e-06
-1.12479e-06
-3.56084e-06
-1.06322e-06
-4.26716e-06
-8.85593e-07
-4.94032e-06
-5.60901e-07
-5.26131e-06
-4.80492e-06
-1.1694e-08
4.13784e-07
-3.14522e-08
6.11631e-07
-5.37286e-08
6.71694e-07
-7.69682e-08
7.01248e-07
-1.00521e-07
7.21238e-07
-1.24054e-07
7.37745e-07
-1.47392e-07
7.53342e-07
-1.70462e-07
7.6944e-07
-1.93267e-07
7.86986e-07
-2.15869e-07
8.06724e-07
-2.3838e-07
8.29311e-07
-2.60953e-07
8.55365e-07
-2.83775e-07
8.85473e-07
-3.07056e-07
9.20188e-07
-3.31019e-07
9.59994e-07
-3.55894e-07
1.00528e-06
-3.81906e-07
1.05633e-06
-4.09264e-07
1.11331e-06
-4.38146e-07
1.17635e-06
-4.68658e-07
1.24561e-06
-5.00754e-07
1.32137e-06
-5.341e-07
1.40384e-06
-5.679e-07
1.49276e-06
-6.00497e-07
1.58629e-06
-6.28992e-07
1.67614e-06
-6.48079e-07
1.73069e-06
-6.60165e-07
1.7114e-06
-6.69031e-07
1.53171e-06
-6.81721e-07
1.13632e-06
-7.01044e-07
5.53964e-07
-7.23395e-07
-1.24744e-07
-7.4655e-07
-8.26656e-07
-7.73362e-07
-1.51425e-06
-8.05091e-07
-2.18148e-06
-8.36756e-07
-2.84709e-06
-8.55201e-07
-3.5424e-06
-8.33282e-07
-4.28908e-06
-7.12232e-07
-5.06137e-06
-4.40699e-07
-5.53284e-06
-5.24562e-06
-1.03543e-08
4.24138e-07
-2.84595e-08
6.29736e-07
-4.90138e-08
6.92249e-07
-7.04484e-08
7.22683e-07
-9.20642e-08
7.42854e-07
-1.13472e-07
7.59153e-07
-1.34443e-07
7.74312e-07
-1.5485e-07
7.89847e-07
-1.74641e-07
8.06777e-07
-1.93822e-07
8.25905e-07
-2.12438e-07
8.47928e-07
-2.30567e-07
8.73494e-07
-2.48303e-07
9.03209e-07
-2.65744e-07
9.37629e-07
-2.82978e-07
9.77228e-07
-3.00066e-07
1.02237e-06
-3.17022e-07
1.07329e-06
-3.3379e-07
1.13008e-06
-3.50202e-07
1.19276e-06
-3.65909e-07
1.26132e-06
-3.80266e-07
1.33573e-06
-3.92173e-07
1.41574e-06
-3.99867e-07
1.50046e-06
-4.00609e-07
1.58703e-06
-3.90856e-07
1.66639e-06
-3.70089e-07
1.70992e-06
-3.40209e-07
1.68152e-06
-3.14479e-07
1.50598e-06
-3.07409e-07
1.12925e-06
-3.22961e-07
5.69517e-07
-3.53763e-07
-9.39421e-08
-3.93873e-07
-7.86545e-07
-4.44075e-07
-1.46405e-06
-5.03656e-07
-2.1219e-06
-5.66043e-07
-2.7847e-06
-6.17734e-07
-3.49071e-06
-6.33974e-07
-4.27284e-06
-5.74408e-07
-5.12093e-06
-3.66545e-07
-5.7407e-06
-5.61216e-06
-9.19249e-09
4.3333e-07
-2.5807e-08
6.4635e-07
-4.477e-08
7.11212e-07
-6.44968e-08
7.42409e-07
-8.4236e-08
7.62593e-07
-1.03543e-07
7.78459e-07
-1.22134e-07
7.92904e-07
-1.39832e-07
8.07545e-07
-1.56534e-07
8.2348e-07
-1.7219e-07
8.41561e-07
-1.86787e-07
8.62524e-07
-2.00329e-07
8.87036e-07
-2.12828e-07
9.15708e-07
-2.24279e-07
9.4908e-07
-2.34647e-07
9.87597e-07
-2.43843e-07
1.03157e-06
-2.51697e-07
1.08114e-06
-2.57924e-07
1.1363e-06
-2.62069e-07
1.1969e-06
-2.63422e-07
1.26267e-06
-2.60893e-07
1.3332e-06
-2.52856e-07
1.40771e-06
-2.36968e-07
1.48457e-06
-2.10013e-07
1.56008e-06
-1.68314e-07
1.62469e-06
-1.13561e-07
1.65517e-06
-4.94143e-08
1.61737e-06
4.75611e-09
1.45181e-06
3.12898e-08
1.10272e-06
2.46158e-08
5.76191e-07
-1.28413e-08
-5.64851e-08
-7.11271e-08
-7.2826e-07
-1.47041e-07
-1.38814e-06
-2.36398e-07
-2.03254e-06
-3.30474e-07
-2.69062e-06
-4.14461e-07
-3.40672e-06
-4.65825e-07
-4.22148e-06
-4.52437e-07
-5.13432e-06
-2.96358e-07
-5.89678e-06
-5.90852e-06
-8.26697e-09
4.41597e-07
-2.36171e-08
6.61701e-07
-4.11774e-08
7.28772e-07
-5.93437e-08
7.60576e-07
-7.73107e-08
7.8056e-07
-9.45783e-08
7.95727e-07
-1.10814e-07
8.09139e-07
-1.25794e-07
8.22525e-07
-1.3937e-07
8.37056e-07
-1.51448e-07
8.53638e-07
-1.61961e-07
8.73037e-07
-1.70857e-07
8.95932e-07
-1.78072e-07
9.22924e-07
-1.8352e-07
9.54528e-07
-1.87061e-07
9.91138e-07
-1.88488e-07
1.03299e-06
-1.87488e-07
1.08014e-06
-1.83609e-07
1.13242e-06
-1.76194e-07
1.18949e-06
-1.64297e-07
1.25078e-06
-1.4657e-07
1.31547e-06
-1.2113e-07
1.38227e-06
-8.54386e-08
1.44888e-06
-3.62554e-08
1.5109e-06
2.93706e-08
1.55906e-06
1.10182e-07
1.57435e-06
2.00522e-07
1.52703e-06
2.82097e-07
1.37023e-06
3.29704e-07
1.05511e-06
3.29467e-07
5.76428e-07
2.85857e-07
-1.28744e-08
2.10324e-07
-6.52727e-07
1.09509e-07
-1.28732e-06
-8.97551e-09
-1.91406e-06
-1.33941e-07
-2.56566e-06
-2.48978e-07
-3.29168e-06
-3.32487e-07
-4.13797e-06
-3.57169e-07
-5.10964e-06
-2.47634e-07
-6.00632e-06
-6.15615e-06
-7.64625e-09
4.49244e-07
-2.2033e-08
6.76087e-07
-3.84411e-08
7.4518e-07
-5.52459e-08
7.7738e-07
-7.15862e-08
7.969e-07
-8.69097e-08
8.1105e-07
-1.0084e-07
8.23069e-07
-1.13118e-07
8.34803e-07
-1.23562e-07
8.47501e-07
-1.32045e-07
8.62121e-07
-1.38463e-07
8.79455e-07
-1.42717e-07
9.00186e-07
-1.44694e-07
9.249e-07
-1.44239e-07
9.54073e-07
-1.41142e-07
9.88042e-07
-1.3511e-07
1.02696e-06
-1.25739e-07
1.07077e-06
-1.12475e-07
1.11916e-06
-9.45575e-08
1.17157e-06
-7.09452e-08
1.22717e-06
-4.02153e-08
1.28474e-06
-4.79421e-10
1.34253e-06
5.06672e-08
1.39773e-06
1.15932e-07
1.44563e-06
1.97543e-07
1.47745e-06
2.94497e-07
1.4774e-06
4.00421e-07
1.42111e-06
4.98213e-07
1.27244e-06
5.61657e-07
9.91667e-07
5.7162e-07
5.66464e-07
5.28461e-07
3.0285e-08
4.39462e-07
-5.63728e-07
3.17845e-07
-1.16571e-06
1.74891e-07
-1.7711e-06
2.35855e-08
-2.41435e-06
-1.1923e-07
-3.14887e-06
-2.30955e-07
-4.02624e-06
-2.85312e-07
-5.05528e-06
-2.14441e-07
-6.07719e-06
-6.3706e-06
-7.41395e-09
4.56658e-07
-2.12219e-08
6.89895e-07
-3.67966e-08
7.60755e-07
-5.24899e-08
7.93074e-07
-6.73835e-08
8.11794e-07
-8.08792e-08
8.24546e-07
-9.25688e-08
8.34759e-07
-1.02171e-07
8.44405e-07
-1.09491e-07
8.54821e-07
-1.14383e-07
8.67013e-07
-1.16725e-07
8.81797e-07
-1.16392e-07
8.99853e-07
-1.13235e-07
9.21743e-07
-1.07063e-07
9.47901e-07
-9.76222e-08
9.786e-07
-8.4573e-08
1.01391e-06
-6.74685e-08
1.05366e-06
-4.57233e-08
1.09741e-06
-1.85628e-08
1.14441e-06
1.5031e-08
1.19357e-06
5.63732e-08
1.2434e-06
1.07141e-07
1.29176e-06
1.69331e-07
1.33554e-06
2.45068e-07
1.36989e-06
3.35661e-07
1.38686e-06
4.39801e-07
1.37326e-06
5.51305e-07
1.30961e-06
6.55156e-07
1.16859e-06
7.27434e-07
9.19389e-07
7.4646e-07
5.47438e-07
7.05466e-07
7.12789e-08
6.10417e-07
-4.68678e-07
4.75584e-07
-1.03087e-06
3.15123e-07
-1.61064e-06
1.43495e-07
-2.24272e-06
-2.10954e-08
-2.98428e-06
-1.55218e-07
-3.89212e-06
-2.2922e-07
-4.98128e-06
-1.92127e-07
-6.11428e-06
-6.56272e-06
-7.67355e-09
4.64331e-07
-2.13839e-08
7.03606e-07
-3.6519e-08
7.7589e-07
-5.1397e-08
8.07952e-07
-6.50464e-08
8.25443e-07
-7.68356e-08
8.36335e-07
-8.63429e-08
8.44266e-07
-9.32865e-08
8.51349e-07
-9.74829e-08
8.59017e-07
-9.87906e-08
8.68321e-07
-9.70876e-08
8.80094e-07
-9.22443e-08
8.9501e-07
-8.41012e-08
9.136e-07
-7.24512e-08
9.36251e-07
-5.70248e-08
9.63174e-07
-3.74761e-08
9.94363e-07
-1.33526e-08
1.02954e-06
1.58985e-08
1.06816e-06
5.09856e-08
1.10932e-06
9.28059e-08
1.15175e-06
1.42474e-07
1.19373e-06
2.01315e-07
1.23292e-06
2.70796e-07
1.26606e-06
3.52263e-07
1.28843e-06
4.46204e-07
1.29292e-06
5.50805e-07
1.26866e-06
6.6019e-07
1.20022e-06
7.6163e-07
1.06715e-06
8.34773e-07
8.46246e-07
8.58308e-07
5.23903e-07
8.21176e-07
1.08411e-07
7.25992e-07
-3.73495e-07
5.85933e-07
-8.90814e-07
4.16021e-07
-1.44073e-06
2.31278e-07
-2.05798e-06
4.98152e-08
-2.80281e-06
-1.03396e-07
-3.73891e-06
-1.95253e-07
-4.88942e-06
-1.78296e-07
-6.13124e-06
-6.74102e-06
-8.55698e-09
4.72888e-07
-2.27682e-08
7.17817e-07
-3.79339e-08
7.91056e-07
-5.23297e-08
8.22347e-07
-6.49404e-08
8.38054e-07
-7.51236e-08
8.46518e-07
-8.24732e-08
8.51616e-07
-8.67323e-08
8.55608e-07
-8.77742e-08
8.60059e-07
-8.54798e-08
8.66027e-07
-7.97519e-08
8.74366e-07
-7.04779e-08
8.85736e-07
-5.75081e-08
9.0063e-07
-4.06413e-08
9.19384e-07
-1.96148e-08
9.42147e-07
5.90652e-09
9.68842e-07
3.63061e-08
9.99141e-07
7.20976e-08
1.03237e-06
1.13871e-07
1.06755e-06
1.62335e-07
1.10329e-06
2.18319e-07
1.13775e-06
2.8274e-07
1.1685e-06
3.56492e-07
1.19231e-06
4.40181e-07
1.20474e-06
5.33526e-07
1.19957e-06
6.34252e-07
1.16793e-06
7.36767e-07
1.09771e-06
8.30323e-07
9.73592e-07
8.98215e-07
7.78354e-07
9.2162e-07
5.00497e-07
8.8805e-07
1.4198e-07
7.96802e-07
-2.82246e-07
6.58192e-07
-7.52205e-07
4.86016e-07
-1.26855e-06
2.94658e-07
-1.86662e-06
1.0198e-07
-2.61014e-06
-6.5941e-08
-3.57099e-06
-1.7254e-07
-4.78282e-06
-1.70274e-07
-6.1335e-06
-6.91129e-06
-1.02402e-08
4.83128e-07
-2.56927e-08
7.33269e-07
-4.14368e-08
8.068e-07
-5.56992e-08
8.3661e-07
-6.7446e-08
8.49801e-07
-7.60671e-08
8.55139e-07
-8.12102e-08
8.56759e-07
-8.26795e-08
8.57077e-07
-8.04739e-08
8.57854e-07
-7.45054e-08
8.60058e-07
-6.47343e-08
8.64595e-07
-5.10863e-08
8.72088e-07
-3.34384e-08
8.82982e-07
-1.16116e-08
8.97558e-07
1.46301e-08
9.15906e-07
4.55761e-08
9.37896e-07
8.15839e-08
9.63133e-07
1.23045e-07
9.9091e-07
1.70411e-07
1.02018e-06
2.24179e-07
1.04952e-06
2.84868e-07
1.07706e-06
3.52975e-07
1.10039e-06
4.2885e-07
1.11643e-06
5.12449e-07
1.12114e-06
6.0285e-07
1.10917e-06
6.97439e-07
1.07335e-06
7.90932e-07
1.00421e-06
8.74228e-07
8.90296e-07
9.33781e-07
7.188e-07
9.53974e-07
4.80305e-07
9.22896e-07
1.73059e-07
8.375e-07
-1.9685e-07
7.04658e-07
-6.19363e-07
5.35615e-07
-1.09951e-06
3.42984e-07
-1.67399e-06
1.43783e-07
-2.41093e-06
-3.55927e-08
-3.39161e-06
-1.52822e-07
-4.6656e-06
-1.68491e-07
-6.11783e-06
-7.07978e-06
-1.29706e-08
4.96099e-07
-3.05793e-08
7.50878e-07
-4.75207e-08
8.23741e-07
-6.19705e-08
8.5106e-07
-7.29339e-08
8.60764e-07
-7.99029e-08
8.62108e-07
-8.26871e-08
8.59543e-07
-8.12339e-08
8.55624e-07
-7.55186e-08
8.52138e-07
-6.57055e-08
8.50245e-07
-5.18113e-08
8.50701e-07
-3.38042e-08
8.5408e-07
-1.15978e-08
8.60776e-07
1.49618e-08
8.70998e-07
4.6071e-08
8.84796e-07
8.19819e-08
9.01985e-07
1.22979e-07
9.22136e-07
1.69361e-07
9.44527e-07
2.21431e-07
9.68113e-07
2.79464e-07
9.91487e-07
3.43687e-07
1.01283e-06
4.14214e-07
1.02987e-06
4.90916e-07
1.03973e-06
5.73212e-07
1.03884e-06
6.59692e-07
1.02269e-06
7.4754e-07
9.85497e-07
8.31833e-07
9.19921e-07
9.04841e-07
8.17288e-07
9.55618e-07
6.68023e-07
9.71585e-07
4.64337e-07
9.42272e-07