/*--------------------------------*- C++ -*----------------------------------*\
  =========                 |
  \\      /  F ield         | OpenFOAM: The Open Source CFD Toolbox
   \\    /   O peration     | Website:  https://openfoam.org
    \\  /    A nd           | Version:  12
     \\/     M anipulation  |
\*---------------------------------------------------------------------------*/
FoamFile
{
    format      ascii;
    class       volVectorField;
    location    "1";
    object      U;
}
// * * * * * * * * * * * * * * * * * * * * * * * * * * * * * * * * * * * * * //

dimensions      [0 1 -1 0 0 0 0];

internalField   nonuniform List<vector> 
1600
(
(8.55124e-05 -8.59345e-05 0)
(5.55816e-05 1.06359e-05 0)
(-0.000345632 0.00014911 0)
(-0.00102613 0.000254629 0)
(-0.00188012 0.000316651 0)
(-0.00283579 0.000350722 0)
(-0.00384995 0.000369654 0)
(-0.00489859 0.0003807 0)
(-0.00596897 0.000388006 0)
(-0.00705506 0.000394103 0)
(-0.00815481 0.000400583 0)
(-0.00926842 0.000408413 0)
(-0.0103972 0.000418094 0)
(-0.0115425 0.000429733 0)
(-0.012705 0.000443071 0)
(-0.0138836 0.000457478 0)
(-0.0150747 0.000471911 0)
(-0.0162715 0.000484849 0)
(-0.0174625 0.000494209 0)
(-0.018631 0.000497263 0)
(-0.0197535 0.000490582 0)
(-0.0207981 0.000469756 0)
(-0.0217256 0.000428284 0)
(-0.0225023 0.000358275 0)
(-0.0230577 0.000263266 0)
(-0.0233035 0.000170783 0)
(-0.0233039 5.14545e-06 0)
(-0.0228703 -0.000175511 0)
(-0.0220305 -0.000381603 0)
(-0.0207401 -0.000598019 0)
(-0.0190025 -0.000807872 0)
(-0.0168501 -0.0009913 0)
(-0.0143539 -0.00113212 0)
(-0.0116217 -0.00121851 0)
(-0.00877698 -0.00122801 0)
(-0.00598702 -0.00114038 0)
(-0.00344881 -0.000931058 0)
(-0.00139763 -0.000579813 0)
(-0.000101835 -0.000137478 0)
(0.000188272 0.000166793 0)
(-1.70043e-05 -5.60711e-05 0)
(-0.000468242 0.000463609 0)
(-0.0013608 0.00100928 0)
(-0.00251917 0.00138387 0)
(-0.00385781 0.0016087 0)
(-0.00530743 0.00173909 0)
(-0.00682871 0.00181586 0)
(-0.00839784 0.00186317 0)
(-0.0100003 0.00189512 0)
(-0.0116276 0.00191994 0)
(-0.0132746 0.00194237 0)
(-0.0149384 0.00196482 0)
(-0.0166162 0.00198795 0)
(-0.0183046 0.00201085 0)
(-0.0199987 0.0020312 0)
(-0.0216908 0.00204525 0)
(-0.0233693 0.00204782 0)
(-0.0250183 0.0020322 0)
(-0.0266162 0.00199017 0)
(-0.028135 0.00191205 0)
(-0.0295399 0.001787 0)
(-0.0307888 0.00160337 0)
(-0.0318345 0.00134911 0)
(-0.0326273 0.00101267 0)
(-0.0331091 0.000592206 0)
(-0.033214 9.7462e-05 0)
(-0.0328978 -0.000488494 0)
(-0.032107 -0.00115262 0)
(-0.0308167 -0.00186463 0)
(-0.0290099 -0.00259204 0)
(-0.0267004 -0.00329035 0)
(-0.0239274 -0.00391019 0)
(-0.0207604 -0.00439532 0)
(-0.0173041 -0.00469226 0)
(-0.0137004 -0.00475274 0)
(-0.010108 -0.00452164 0)
(-0.0067086 -0.00393573 0)
(-0.00372114 -0.00292707 0)
(-0.00133291 -0.00148793 0)
(-3.71776e-05 -7.51495e-05 0)
(-0.000175746 0.000363056 0)
(-0.00103977 0.00136328 0)
(-0.00218775 0.00216667 0)
(-0.0035024 0.00270931 0)
(-0.00495377 0.00305519 0)
(-0.00649952 0.00327284 0)
(-0.00811726 0.00341213 0)
(-0.00979035 0.00350473 0)
(-0.0115062 0.00357037 0)
(-0.0132556 0.00362122 0)
(-0.0150323 0.00366427 0)
(-0.0168309 0.00370276 0)
(-0.0186462 0.00373702 0)
(-0.0204722 0.00376487 0)
(-0.0223009 0.00378171 0)
(-0.0241218 0.00378066 0)
(-0.0259207 0.00375247 0)
(-0.027679 0.00368559 0)
(-0.0293729 0.00356632 0)
(-0.0309731 0.00337907 0)
(-0.0324438 0.003107 0)
(-0.0337434 0.00273285 0)
(-0.0348251 0.0022402 0)
(-0.0356383 0.00161579 0)
(-0.0361273 0.000854075 0)
(-0.0362336 -4.314e-05 0)
(-0.0359042 -0.00107478 0)
(-0.0350915 -0.00221557 0)
(-0.0337625 -0.00342607 0)
(-0.0318994 -0.00465064 0)
(-0.0295108 -0.00581977 0)
(-0.0266364 -0.00685398 0)
(-0.0233511 -0.00766851 0)
(-0.019763 -0.00818186 0)
(-0.0160083 -0.00832115 0)
(-0.0122375 -0.00802094 0)
(-0.00860748 -0.00721526 0)
(-0.00529858 -0.00582809 0)
(-0.00239296 -0.0037579 0)
(-0.000290566 -0.00107526 0)
(-0.000306757 0.00109042 0)
(-0.0014479 0.00252086 0)
(-0.00274818 0.00347291 0)
(-0.00414792 0.00411724 0)
(-0.00564511 0.00455196 0)
(-0.0072144 0.00484534 0)
(-0.00884768 0.0050469 0)
(-0.0105368 0.00519003 0)
(-0.0122734 0.00529677 0)
(-0.01405 0.00538125 0)
(-0.0158603 0.00545171 0)
(-0.0176983 0.00551178 0)
(-0.0195581 0.00556133 0)
(-0.0214326 0.00559685 0)
(-0.0233132 0.00561162 0)
(-0.0251887 0.00559579 0)
(-0.0270449 0.00553638 0)
(-0.0288636 0.00541739 0)
(-0.0306219 0.00522002 0)
(-0.0322915 0.00492319 0)
(-0.0338386 0.00450429 0)
(-0.0352233 0.00394045 0)
(-0.0363998 0.00321025 0)
(-0.037317 0.00229639 0)
(-0.0379181 0.00118918 0)
(-0.0381426 -0.000111906 0)
(-0.0379305 -0.00159643 0)
(-0.0372256 -0.00323443 0)
(-0.035982 -0.00497291 0)
(-0.0341697 -0.00673474 0)
(-0.0317837 -0.00842293 0)
(-0.028853 -0.00992216 0)
(-0.0254512 -0.0111114 0)
(-0.021692 -0.0118778 0)
(-0.0177217 -0.0121265 0)
(-0.0137037 -0.0117864 0)
(-0.00980287 -0.0108046 0)
(-0.00620001 -0.00911972 0)
(-0.00294364 -0.00653445 0)
(-0.000414911 -0.00251776 0)
(-0.000389099 0.00201435 0)
(-0.00169842 0.00385093 0)
(-0.00309787 0.00489567 0)
(-0.00455902 0.00559945 0)
(-0.00608871 0.00609601 0)
(-0.00766931 0.00645096 0)
(-0.00930245 0.00670976 0)
(-0.0109874 0.00690414 0)
(-0.0127203 0.00705597 0)
(-0.0144966 0.00717962 0)
(-0.0163115 0.00728351 0)
(-0.0181599 0.00737117 0)
(-0.0200365 0.00744181 0)
(-0.0219347 0.00749069 0)
(-0.0238468 0.00750916 0)
(-0.0257628 0.00748473 0)
(-0.0276698 0.00740107 0)
(-0.0295518 0.00723811 0)
(-0.0313882 0.00697229 0)
(-0.0331537 0.00657713 0)
(-0.0348169 0.0060241 0)
(-0.03634 0.00528402 0)
(-0.0376783 0.0043291 0)
(-0.0387791 0.00313575 0)
(-0.0395819 0.00168822 0)
(-0.040019 -1.77906e-05 0)
(-0.0400187 -0.00197009 0)
(-0.039508 -0.00413528 0)
(-0.0384188 -0.00644906 0)
(-0.0366964 -0.00881394 0)
(-0.0343136 -0.0111026 0)
(-0.03128 -0.0131567 0)
(-0.0276629 -0.0148062 0)
(-0.023591 -0.0158949 0)
(-0.0192404 -0.0162967 0)
(-0.0148175 -0.0159301 0)
(-0.0105355 -0.0147613 0)
(-0.00661397 -0.0127541 0)
(-0.00310549 -0.0096087 0)
(-0.000418768 -0.00414041 0)
(-0.000434172 0.00305523 0)
(-0.00183674 0.00528083 0)
(-0.00329796 0.00638814 0)
(-0.00480266 0.00712324 0)
(-0.00635738 0.00765893 0)
(-0.00794645 0.00806049 0)
(-0.00957682 0.00836856 0)
(-0.011253 0.00861151 0)
(-0.0129755 0.00880935 0)
(-0.0147428 0.00897551 0)
(-0.0165525 0.0091179 0)
(-0.0184015 0.00923951 0)
(-0.0202861 0.00933882 0)
(-0.0222016 0.00940993 0)
(-0.0241421 0.00944254 0)
(-0.0261001 0.00942193 0)
(-0.0280656 0.00932888 0)
(-0.0300259 0.00913964 0)
(-0.031964 0.00882621 0)
(-0.0338584 0.00835668 0)
(-0.0356812 0.00769612 0)
(-0.0373974 0.0068079 0)
(-0.0389627 0.00565586 0)
(-0.0403226 0.00420727 0)
(-0.041411 0.00243693 0)
(-0.0421496 0.000332328 0)
(-0.04245 -0.00209978 0)
(-0.0422153 -0.00482727 0)
(-0.0413453 -0.00777915 0)
(-0.039749 -0.0108397 0)
(-0.0373601 -0.0138468 0)
(-0.0341621 -0.0165905 0)
(-0.0302054 -0.0188287 0)
(-0.0256416 -0.0203389 0)
(-0.020703 -0.0209424 0)
(-0.0156831 -0.0205329 0)
(-0.0108966 -0.0190978 0)
(-0.00664202 -0.0166466 0)
(-0.00298248 -0.0127989 0)
(-0.000338721 -0.00574031 0)
(-0.000454904 0.00415692 0)
(-0.0019012 0.00676437 0)
(-0.00339566 0.00792309 0)
(-0.00492695 0.00867474 0)
(-0.00649791 0.0092342 0)
(-0.00809194 0.00966981 0)
(-0.00971813 0.0100188 0)
(-0.0113843 0.010306 0)
(-0.0130945 0.0105492 0)
(-0.01485 0.0107601 0)
(-0.0166513 0.0109456 0)
(-0.0184977 0.011108 0)
(-0.020388 0.0112451 0)
(-0.0223201 0.0113499 0)
(-0.0242912 0.0114109 0)
(-0.0262971 0.0114115 0)
(-0.0283318 0.0113301 0)
(-0.0303869 0.0111397 0)
(-0.0324504 0.0108081 0)
(-0.0345056 0.0102978 0)
(-0.0365292 0.00956677 0)
(-0.0384895 0.0085694 0)
(-0.0403437 0.00725869 0)
(-0.0420357 0.00558919 0)
(-0.0434932 0.00352158 0)
(-0.0446262 0.00102878 0)
(-0.0453261 -0.00189581 0)
(-0.0454661 -0.00522969 0)
(-0.0449047 -0.00890358 0)
(-0.0435012 -0.0127872 0)
(-0.0411265 -0.0166834 0)
(-0.0377195 -0.0203156 0)
(-0.0332991 -0.0233394 0)
(-0.0280302 -0.025423 0)
(-0.0222324 -0.0262915 0)
(-0.016346 -0.0257779 0)
(-0.0108708 -0.0238902 0)
(-0.00624927 -0.020743 0)
(-0.00256247 -0.0159509 0)
(-0.000179977 -0.00714931 0)
(-0.000460024 0.00528166 0)
(-0.00191701 0.00826981 0)
(-0.00342249 0.00947931 0)
(-0.00496476 0.0102419 0)
(-0.00654207 0.0108164 0)
(-0.00813576 0.0112774 0)
(-0.00975509 0.0116606 0)
(-0.0114098 0.0119883 0)
(-0.0131063 0.0122757 0)
(-0.0148487 0.0125331 0)
(-0.01664 0.0127664 0)
(-0.0184825 0.012977 0)
(-0.0203778 0.013162 0)
(-0.0223271 0.0133138 0)
(-0.0243312 0.0134201 0)
(-0.0263903 0.0134631 0)
(-0.0285032 0.0134193 0)
(-0.030667 0.0132588 0)
(-0.0328756 0.0129456 0)
(-0.0351184 0.0124362 0)
(-0.037378 0.0116809 0)
(-0.0396274 0.0106237 0)
(-0.0418273 0.00920404 0)
(-0.0439216 0.00735998 0)
(-0.0458343 0.00503263 0)
(-0.047465 0.00217295 0)
(-0.0486855 -0.00124871 0)
(-0.0493367 -0.00523144 0)
(-0.0492289 -0.00972153 0)
(-0.048155 -0.0145853 0)
(-0.0458972 -0.0195974 0)
(-0.0423055 -0.0243975 0)
(-0.037344 -0.0285051 0)
(-0.031148 -0.0314062 0)
(-0.0241364 -0.0326491 0)
(-0.0169687 -0.0319292 0)
(-0.0104482 -0.0292833 0)
(-0.00530981 -0.024997 0)
(-0.00172949 -0.0188534 0)
(9.49564e-05 -0.00819316 0)
(-0.000455505 0.00640554 0)
(-0.00189941 0.0097733 0)
(-0.00339905 0.0110388 0)
(-0.00493843 0.0118122 0)
(-0.00651197 0.0123978 0)
(-0.00809864 0.0128789 0)
(-0.00970691 0.0132917 0)
(-0.0113473 0.0136569 0)
(-0.0130279 0.013988 0)
(-0.0147552 0.0142939 0)
(-0.0165346 0.0145795 0)
(-0.0183713 0.0148459 0)
(-0.0202699 0.0150897 0)
(-0.0222355 0.0153033 0)
(-0.0242731 0.0154739 0)
(-0.0263875 0.0155832 0)
(-0.0285833 0.0156064 0)
(-0.0308639 0.0155116 0)
(-0.0332302 0.015259 0)
(-0.0356791 0.0147996 0)
(-0.0382006 0.0140753 0)
(-0.0407751 0.0130185 0)
(-0.0433695 0.0115533 0)
(-0.0459326 0.00959794 0)
(-0.04839 0.00706912 0)
(-0.0506378 0.00388808 0)
(-0.052535 -9.13579e-06 0)
(-0.0538952 -0.00465916 0)
(-0.0544824 -0.010045 0)
(-0.0540067 -0.0160548 0)
(-0.0521346 -0.0224537 0)
(-0.0485657 -0.0288001 0)
(-0.0431501 -0.0344331 0)
(-0.0359073 -0.0385707 0)
(-0.0273027 -0.0404504 0)
(-0.0182355 -0.0394757 0)
(-0.00997762 -0.0355993 0)
(-0.00387666 -0.0294235 0)
(-0.000405296 -0.0212311 0)
(0.000467489 -0.00854821 0)
(-0.000443938 0.00751112 0)
(-0.00185806 0.0112578 0)
(-0.00333894 0.012587 0)
(-0.00486334 0.0133739 0)
(-0.00642321 0.0139698 0)
(-0.00799539 0.0144684 0)
(-0.00958704 0.014908 0)
(-0.0112088 0.0153088 0)
(-0.01287 0.0156833 0)
(-0.0145786 0.0160397 0)
(-0.0163426 0.0163824 0)
(-0.0181698 0.0167122 0)
(-0.0200681 0.0170261 0)
(-0.0220462 0.0173167 0)
(-0.0241136 0.0175716 0)
(-0.0262805 0.0177727 0)
(-0.0285575 0.0178948 0)
(-0.0309551 0.0179047 0)
(-0.033482 0.0177594 0)
(-0.0361439 0.017405 0)
(-0.0389406 0.0167752 0)
(-0.0418628 0.0157908 0)
(-0.0448888 0.0143601 0)
(-0.0479796 0.0123804 0)
(-0.0510729 0.00974076 0)
(-0.0540755 0.00632696 0)
(-0.0568494 0.00202992 0)
(-0.0592011 -0.00324389 0)
(-0.0608677 -0.00954094 0)
(-0.0614715 -0.0168171 0)
(-0.0605454 -0.0248703 0)
(-0.0575759 -0.0332055 0)
(-0.0521844 -0.0409559 0)
(-0.0441479 -0.0470262 0)
(-0.0338061 -0.0501644 0)
(-0.0222221 -0.0491856 0)
(-0.0111085 -0.0435968 0)
(-0.00279566 -0.0343316 0)
(0.00114638 -0.0229523 0)
(0.000945883 -0.00808945 0)
(-0.000426425 0.00858456 0)
(-0.00179967 0.0127115 0)
(-0.00325116 0.0141117 0)
(-0.00475008 0.0149164 0)
(-0.00628689 0.0155236 0)
(-0.00783667 0.016039 0)
(-0.00940513 0.0165039 0)
(-0.0110027 0.0169392 0)
(-0.0126391 0.0173574 0)
(-0.0143239 0.0177663 0)
(-0.016067 0.0181704 0)
(-0.0178785 0.018571 0)
(-0.0197696 0.0189658 0)
(-0.0217526 0.0193483 0)
(-0.0238416 0.0197075 0)
(-0.0260519 0.0200262 0)
(-0.0284006 0.0202797 0)
(-0.0309053 0.0204345 0)
(-0.0335836 0.0204457 0)
(-0.0364511 0.0202555 0)
(-0.0395193 0.0197909 0)
(-0.0427938 0.018963 0)
(-0.0462707 0.0176664 0)
(-0.0499336 0.0157795 0)
(-0.0537484 0.0131655 0)
(-0.0576535 0.0096736 0)
(-0.061543 0.00514341 0)
(-0.0652616 -0.000590756 0)
(-0.0685561 -0.00766877 0)
(-0.0709856 -0.0161762 0)
(-0.071944 -0.0260066 0)
(-0.070646 -0.03669 0)
(-0.066344 -0.047229 0)
(-0.0584958 -0.0562418 0)
(-0.0470668 -0.0618593 0)
(-0.0329316 -0.0619647 0)
(-0.0177828 -0.05497 0)
(-0.0047021 -0.0412965 0)
(0.00193374 -0.0246675 0)
(0.00138877 -0.00682292 0)
(-0.000404526 0.00961682 0)
(-0.0017286 0.0141248 0)
(-0.00314169 0.015603 0)
(-0.00460598 0.0164301 0)
(-0.00611093 0.0170508 0)
(-0.00763028 0.0175831 0)
(-0.00916828 0.0180727 0)
(-0.0107347 0.018542 0)
(-0.0123397 0.0190041 0)
(-0.0139937 0.0194672 0)
(-0.0157081 0.0199366 0)
(-0.0174952 0.0204144 0)
(-0.0193689 0.0208997 0)
(-0.021345 0.021388 0)
(-0.0234417 0.02187 0)
(-0.0256794 0.0223305 0)
(-0.0280811 0.0227466 0)
(-0.030672 0.0230856 0)
(-0.0334781 0.0233022 0)
(-0.0365262 0.0233369 0)
(-0.0398418 0.0231131 0)
(-0.0434493 0.0225364 0)
(-0.0473702 0.0214936 0)
(-0.051623 0.0198517 0)
(-0.0562197 0.017456 0)
(-0.0611564 0.0141289 0)
(-0.0664039 0.00966314 0)
(-0.071901 0.00381741 0)
(-0.0774345 -0.00369162 0)
(-0.0825255 -0.0131184 0)
(-0.0863623 -0.0246275 0)
(-0.0879274 -0.0380318 0)
(-0.0859895 -0.0524425 0)
(-0.0797088 -0.0658069 0)
(-0.0685418 -0.0753522 0)
(-0.0531786 -0.0784151 0)
(-0.0343222 -0.0718995 0)
(-0.0143672 -0.053894 0)
(-4.60509e-05 -0.0287594 0)
(0.00153883 -0.00561509 0)
(-0.000379419 0.0106009 0)
(-0.00164772 0.0154898 0)
(-0.00301473 0.0170521 0)
(-0.00443632 0.0179064 0)
(-0.00590121 0.0185429 0)
(-0.00738217 0.019093 0)
(-0.00888197 0.0196071 0)
(-0.0104096 0.02011 0)
(-0.0119751 0.0206159 0)
(-0.0135896 0.0211343 0)
(-0.0152654 0.0216715 0)
(-0.0170166 0.0222314 0)
(-0.0188594 0.0228151 0)
(-0.0208125 0.0234204 0)
(-0.0228974 0.0240409 0)
(-0.0251391 0.0246643 0)
(-0.027566 0.0252705 0)
(-0.0302097 0.0258289 0)
(-0.0331048 0.0262964 0)
(-0.0362891 0.0266145 0)
(-0.0398037 0.0267079 0)
(-0.0436948 0.0264836 0)
(-0.0480154 0.0258305 0)
(-0.0528287 0.0246172 0)
(-0.0582067 0.0226883 0)
(-0.0642251 0.0198587 0)
(-0.0709781 0.0158985 0)
(-0.078492 0.0104692 0)
(-0.0865169 0.00304706 0)
(-0.0943775 -0.0070704 0)
(-0.100835 -0.0206325 0)
(-0.104297 -0.037747 0)
(-0.103855 -0.056796 0)
(-0.0999314 -0.0750997 0)
(-0.0914836 -0.0898891 0)
(-0.0774023 -0.0974903 0)
(-0.0580973 -0.0941479 0)
(-0.0336852 -0.0752073 0)
(-0.00740162 -0.0392617 0)
(0.00157248 -0.00626565 0)
(-0.000351926 0.0115315 0)
(-0.00155909 0.0167997 0)
(-0.00287341 0.0184516 0)
(-0.00424517 0.0193373 0)
(-0.00566243 0.0199922 0)
(-0.00709722 0.0205608 0)
(-0.00855085 0.0210991 0)
(-0.0100314 0.0216346 0)
(-0.0115484 0.0221836 0)
(-0.0131132 0.0227572 0)
(-0.0147387 0.0233633 0)
(-0.0164403 0.024008 0)
(-0.0182355 0.0246951 0)
(-0.0201452 0.0254253 0)
(-0.0221937 0.0261957 0)
(-0.0244093 0.0269978 0)
(-0.0268243 0.0278153 0)
(-0.0294757 0.0286217 0)
(-0.0324055 0.0293779 0)
(-0.0356616 0.0300306 0)
(-0.0393001 0.0305118 0)
(-0.0433894 0.0307387 0)
(-0.0480156 0.0306146 0)
(-0.0532873 0.0300258 0)
(-0.0593336 0.0288362 0)
(-0.0663189 0.0268731 0)
(-0.0744099 0.0238681 0)
(-0.0835795 0.0192383 0)
(-0.0933028 0.0119143 0)
(-0.102054 0.000349999 0)
(-0.107807 -0.0162883 0)
(-0.109955 -0.0365964 0)
(-0.109679 -0.0581606 0)
(-0.107154 -0.0793923 0)
(-0.101879 -0.0986872 0)
(-0.0928324 -0.113149 0)
(-0.0779232 -0.116861 0)
(-0.0553478 -0.10266 0)
(-0.0228676 -0.0618963 0)
(0.00144788 -0.0123343 0)
(-0.00032269 0.0124044 0)
(-0.00146434 0.0180491 0)
(-0.00272034 0.0197951 0)
(-0.00403599 0.020716 0)
(-0.00539868 0.0213911 0)
(-0.00677987 0.0219786 0)
(-0.00817938 0.0225403 0)
(-0.00960408 0.023107 0)
(-0.0110629 0.0236973 0)
(-0.0125669 0.0243243 0)
(-0.0141291 0.0249983 0)
(-0.0157652 0.0257279 0)
(-0.0174937 0.0265196 0)
(-0.0193365 0.0273781 0)
(-0.0213195 0.0283042 0)
(-0.0234727 0.0292938 0)
(-0.0258312 0.0303353 0)
(-0.0284352 0.0314078 0)
(-0.0313316 0.0324788 0)
(-0.0345761 0.0335041 0)
(-0.0382371 0.0344288 0)
(-0.0424012 0.0351894 0)
(-0.0471814 0.0357143 0)
(-0.0527183 0.0359207 0)
(-0.0591858 0.0357014 0)
(-0.0667973 0.0348913 0)
(-0.0756818 0.0330413 0)
(-0.0856218 0.0290793 0)
(-0.095498 0.0210517 0)
(-0.103273 0.00699051 0)
(-0.107658 -0.0127913 0)
(-0.109351 -0.035476 0)
(-0.109268 -0.0589293 0)
(-0.107197 -0.0824007 0)
(-0.103193 -0.104649 0)
(-0.0965117 -0.123238 0)
(-0.0861621 -0.134031 0)
(-0.0694944 -0.129009 0)
(-0.0425021 -0.0962024 0)
(-0.000734011 -0.0250926 0)
(-0.000292282 0.0132165 0)
(-0.00136495 0.0192331 0)
(-0.00255794 0.021077 0)
(-0.00381207 0.0220359 0)
(-0.00511397 0.0227327 0)
(-0.00643463 0.0233389 0)
(-0.00777229 0.0239224 0)
(-0.00913249 0.0245178 0)
(-0.0105232 0.0251462 0)
(-0.0119545 0.0258231 0)
(-0.0134393 0.0265614 0)
(-0.0149929 0.0273725 0)
(-0.0166338 0.0282662 0)
(-0.018384 0.0292508 0)
(-0.0202693 0.0303315 0)
(-0.0223202 0.0315088 0)
(-0.024572 0.0327766 0)
(-0.027066 0.0341203 0)
(-0.0298509 0.0355162 0)
(-0.032986 0.0369323 0)
(-0.0365462 0.0383315 0)
(-0.0406282 0.0396752 0)
(-0.0453574 0.0409233 0)
(-0.0508844 0.0420266 0)
(-0.0574049 0.0429061 0)
(-0.0651007 0.0433262 0)
(-0.0740007 0.0425013 0)
(-0.083577 0.0386531 0)
(-0.0922648 0.029046 0)
(-0.0982053 0.0121901 0)
(-0.101082 -0.0101558 0)
(-0.102055 -0.0348306 0)
(-0.101665 -0.0602185 0)
(-0.0999243 -0.0854308 0)
(-0.0968705 -0.109308 0)
(-0.0919799 -0.130462 0)
(-0.0841571 -0.145558 0)
(-0.072109 -0.148541 0)
(-0.0513883 -0.126134 0)
(-0.0100056 -0.0500098 0)
(-0.000261253 0.0139655 0)
(-0.00126243 0.0203482 0)
(-0.00238869 0.0222926 0)
(-0.00357682 0.0232918 0)
(-0.00481256 0.0240108 0)
(-0.00606644 0.0246346 0)
(-0.00733504 0.0252374 0)
(-0.00862231 0.0258576 0)
(-0.00993488 0.0265192 0)
(-0.0112819 0.0272404 0)
(-0.0126749 0.0280367 0)
(-0.0141286 0.0289224 0)
(-0.0156604 0.0299108 0)
(-0.0172911 0.0310136 0)
(-0.0190455 0.0322404 0)
(-0.0209524 0.0335963 0)
(-0.0230452 0.0350807 0)
(-0.0253633 0.0366858 0)
(-0.0279537 0.0383976 0)
(-0.030874 0.0401978 0)
(-0.0341977 0.0420688 0)
(-0.0380198 0.0439979 0)
(-0.0424579 0.0459747 0)
(-0.0476545 0.0479788 0)
(-0.0537753 0.049933 0)
(-0.0609251 0.0514298 0)
(-0.0689999 0.0512505 0)
(-0.0772244 0.0468685 0)
(-0.0839875 0.0352711 0)
(-0.0879629 0.015857 0)
(-0.0895463 -0.00844165 0)
(-0.0898721 -0.0344588 0)
(-0.0892764 -0.0608385 0)
(-0.087974 -0.0868907 0)
(-0.0859049 -0.112001 0)
(-0.0824483 -0.135332 0)
(-0.0761397 -0.15475 0)
(-0.0664296 -0.163411 0)
(-0.0488976 -0.152068 0)
(-0.0184355 -0.0918711 0)
(-0.000230175 0.0146503 0)
(-0.00115841 0.0213917 0)
(-0.00221533 0.0234382 0)
(-0.00333401 0.0244791 0)
(-0.00449922 0.02522 0)
(-0.00568095 0.0258593 0)
(-0.00687402 0.0264778 0)
(-0.00808058 0.0271175 0)
(-0.00930567 0.0278057 0)
(-0.0105569 0.0285633 0)
(-0.0118444 0.0294084 0)
(-0.0131811 0.0303582 0)
(-0.0145826 0.0314291 0)
(-0.0160679 0.0326364 0)
(-0.0176588 0.0339932 0)
(-0.0193809 0.035509 0)
(-0.0212638 0.0371881 0)
(-0.0233421 0.0390294 0)
(-0.0256569 0.0410277 0)
(-0.0282586 0.0431778 0)
(-0.0312108 0.0454795 0)
(-0.034594 0.0479419 0)
(-0.0385002 0.050576 0)
(-0.0430438 0.0533783 0)
(-0.0483205 0.0562239 0)
(-0.0543455 0.0584779 0)
(-0.0609331 0.0584941 0)
(-0.0672945 0.0532034 0)
(-0.0720727 0.0396774 0)
(-0.0745274 0.018238 0)
(-0.0753795 -0.00747612 0)
(-0.0754603 -0.034477 0)
(-0.0749593 -0.0615649 0)
(-0.0741191 -0.0881778 0)
(-0.0728863 -0.114127 0)
(-0.0706269 -0.139165 0)
(-0.0658994 -0.161921 0)
(-0.057506 -0.176224 0)
(-0.0424991 -0.175052 0)
(-0.0152622 -0.132197 0)
(-0.000199667 0.0152707 0)
(-0.00105473 0.0223619 0)
(-0.00204093 0.0245116 0)
(-0.00308793 0.0255944 0)
(-0.00417942 0.0263559 0)
(-0.00528475 0.0270077 0)
(-0.00639681 0.0276367 0)
(-0.00751582 0.0282893 0)
(-0.00864495 0.0289956 0)
(-0.00978993 0.0297794 0)
(-0.010959 0.0306613 0)
(-0.0121629 0.0316612 0)
(-0.0134149 0.0327982 0)
(-0.0147306 0.0340906 0)
(-0.0161283 0.0355545 0)
(-0.0176289 0.0372027 0)
(-0.0192561 0.0390435 0)
(-0.0210374 0.041081 0)
(-0.0230045 0.0433172 0)
(-0.0251956 0.0457566 0)
(-0.0276572 0.0484116 0)
(-0.0304443 0.0513044 0)
(-0.0336123 0.0544552 0)
(-0.0372264 0.0578598 0)
(-0.0413096 0.0613044 0)
(-0.0458057 0.0639446 0)
(-0.0505396 0.0638494 0)
(-0.0549138 0.0576324 0)
(-0.057978 0.0426108 0)
(-0.0594311 0.0197993 0)
(-0.0599741 -0.00685705 0)
(-0.060097 -0.0345074 0)
(-0.0598901 -0.0619904 0)
(-0.0595593 -0.0888604 0)
(-0.0591457 -0.115237 0)
(-0.0581022 -0.141436 0)
(-0.0550808 -0.166833 0)
(-0.0479605 -0.186374 0)
(-0.0364885 -0.191152 0)
(-0.0122804 -0.159838 0)
(-0.000170411 0.015828 0)
(-0.000953505 0.0232589 0)
(-0.00186902 0.0255114 0)
(-0.00284353 0.0266356 0)
(-0.00385945 0.0274154 0)
(-0.0048854 0.0280753 0)
(-0.00591223 0.0287086 0)
(-0.00693806 0.0293658 0)
(-0.00796401 0.0300801 0)
(-0.00899371 0.0308778 0)
(-0.0100332 0.031782 0)
(-0.0110905 0.0328148 0)
(-0.012176 0.0339977 0)
(-0.0133016 0.0353511 0)
(-0.014481 0.0368931 0)
(-0.0157294 0.038639 0)
(-0.0170637 0.0405993 0)
(-0.018502 0.0427814 0)
(-0.0200646 0.0451913 0)
(-0.0217741 0.0478387 0)
(-0.0236551 0.0507412 0)
(-0.0257314 0.0539232 0)
(-0.028017 0.0574001 0)
(-0.0305169 0.0611441 0)
(-0.0332142 0.0648687 0)
(-0.0359815 0.067601 0)
(-0.0387225 0.0672319 0)
(-0.0411715 0.0603169 0)
(-0.0428298 0.0444394 0)
(-0.0436562 0.0209262 0)
(-0.0441558 -0.00626546 0)
(-0.0445348 -0.034306 0)
(-0.0448146 -0.0619637 0)
(-0.0451452 -0.0889096 0)
(-0.0455511 -0.11551 0)
(-0.0456351 -0.142542 0)
(-0.044183 -0.170103 0)
(-0.0387038 -0.195177 0)
(-0.0308799 -0.205133 0)
(-0.0110822 -0.184199 0)
(-0.00014317 0.0163247 0)
(-0.000857177 0.024084 0)
(-0.00170368 0.0264381 0)
(-0.00260646 0.0276022 0)
(-0.0035465 0.0283968 0)
(-0.00449156 0.0290592 0)
(-0.00543035 0.0296893 0)
(-0.00635879 0.0303413 0)
(-0.00727585 0.0310517 0)
(-0.00818294 0.0318491 0)
(-0.00908363 0.0327589 0)
(-0.0099833 0.033805 0)
(-0.0108888 0.0350105 0)
(-0.0118082 0.0363972 0)
(-0.0127501 0.0379844 0)
(-0.0137238 0.039788 0)
(-0.0147383 0.0418196 0)
(-0.0158023 0.044087 0)
(-0.0169236 0.0465968 0)
(-0.018108 0.0493583 0)
(-0.0193571 0.0523867 0)
(-0.0206638 0.055698 0)
(-0.0220033 0.0592938 0)
(-0.0233281 0.0631209 0)
(-0.0246118 0.0668879 0)
(-0.0255624 0.069263 0)
(-0.0263276 0.0686556 0)
(-0.027029 0.0614511 0)
(-0.0274844 0.0454085 0)
(-0.0278695 0.0218349 0)
(-0.0284707 -0.00548275 0)
(-0.0292713 -0.0336516 0)
(-0.0302318 -0.061285 0)
(-0.0314441 -0.0881192 0)
(-0.0328487 -0.11478 0)
(-0.034109 -0.142362 0)
(-0.0341122 -0.17148 0)
(-0.0310219 -0.200872 0)
(-0.0244933 -0.217041 0)
(-0.00872231 -0.203045 0)
(-0.000118813 0.016765 0)
(-0.000768553 0.0248404 0)
(-0.00154957 0.027294 0)
(-0.00238315 0.0284951 0)
(-0.00324872 0.0293 0)
(-0.00411295 0.0299582 0)
(-0.00496238 0.0305759 0)
(-0.00579073 0.0312116 0)
(-0.0065948 0.0319047 0)
(-0.0073738 0.0326862 0)
(-0.00812886 0.0335832 0)
(-0.00886257 0.0346211 0)
(-0.00957846 0.035824 0)
(-0.0102805 0.0372142 0)
(-0.0109726 0.0388112 0)
(-0.0116578 0.0406302 0)
(-0.0123377 0.0426819 0)
(-0.0130118 0.0449722 0)
(-0.0136758 0.0475049 0)
(-0.0143198 0.050284 0)
(-0.014925 0.0533152 0)
(-0.0154576 0.0565997 0)
(-0.0158608 0.0601163 0)
(-0.0160446 0.0637731 0)
(-0.0158884 0.0672236 0)
(-0.0153129 0.0692011 0)
(-0.0143337 0.0682886 0)
(-0.0133647 0.0611576 0)
(-0.0126856 0.0456067 0)
(-0.0126543 0.0226119 0)
(-0.0134034 -0.00438506 0)
(-0.0147336 -0.0323632 0)
(-0.0165308 -0.059738 0)
(-0.0187922 -0.0862883 0)
(-0.0213735 -0.112892 0)
(-0.0238723 -0.140949 0)
(-0.025329 -0.171604 0)
(-0.0243779 -0.204128 0)
(-0.0202052 -0.226038 0)
(-0.0075395 -0.218171 0)
(-9.83352e-05 0.017155 0)
(-0.000690888 0.0255334 0)
(-0.00141203 0.0280831 0)
(-0.00218092 0.0293174 0)
(-0.00297521 0.0301264 0)
(-0.00376033 0.0307722 0)
(-0.00452064 0.0313672 0)
(-0.00524772 0.0319741 0)
(-0.00593634 0.0326353 0)
(-0.00658363 0.0333839 0)
(-0.00718844 0.0342486 0)
(-0.00775078 0.0352558 0)
(-0.00827113 0.03643 0)
(-0.00874976 0.0377933 0)
(-0.00918608 0.0393642 0)
(-0.00957778 0.0411564 0)
(-0.00991992 0.0431779 0)
(-0.0102038 0.0454308 0)
(-0.010415 0.0479129 0)
(-0.0105309 0.0506193 0)
(-0.0105167 0.0535416 0)
(-0.0103196 0.0566606 0)
(-0.00986163 0.0599261 0)
(-0.00902795 0.0632056 0)
(-0.00767087 0.0661159 0)
(-0.00576708 0.0676556 0)
(-0.0033653 0.0663684 0)
(-0.000934367 0.0595638 0)
(0.000858664 0.0449979 0)
(0.00136761 0.0231473 0)
(0.000512207 -0.00297735 0)
(-0.00137093 -0.0303446 0)
(-0.00408445 -0.0571819 0)
(-0.00748117 -0.0832801 0)
(-0.0113046 -0.109729 0)
(-0.0150534 -0.138185 0)
(-0.0179154 -0.170158 0)
(-0.0187081 -0.205524 0)
(-0.016293 -0.23319 0)
(-0.00611417 -0.231192 0)
(-8.29004e-05 0.0175028 0)
(-0.000627963 0.0261708 0)
(-0.00129719 0.0288117 0)
(-0.00200803 0.0300738 0)
(-0.00273613 0.0308795 0)
(-0.00344546 0.031503 0)
(-0.00411834 0.0320635 0)
(-0.00474438 0.0326278 0)
(-0.00531657 0.0332413 0)
(-0.00583025 0.0339391 0)
(-0.0062824 0.0347514 0)
(-0.00667081 0.0357051 0)
(-0.00699335 0.0368246 0)
(-0.00724721 0.0381312 0)
(-0.00742805 0.0396417 0)
(-0.00752919 0.0413672 0)
(-0.00754051 0.043312 0)
(-0.00744713 0.0454728 0)
(-0.00722746 0.0478397 0)
(-0.00685026 0.0503966 0)
(-0.00627058 0.0531188 0)
(-0.0054253 0.055965 0)
(-0.00422718 0.0588565 0)
(-0.00255652 0.0616292 0)
(-0.000279457 0.0639042 0)
(0.00264428 0.0648553 0)
(0.00611769 0.0631799 0)
(0.00962604 0.0567973 0)
(0.0123518 0.04354 0)
(0.0134588 0.0233626 0)
(0.0126999 -0.00132393 0)
(0.0103308 -0.0275976 0)
(0.00671558 -0.0535873 0)
(0.00220598 -0.0790715 0)
(-0.00281887 -0.105298 0)
(-0.00779487 -0.134151 0)
(-0.0119646 -0.16737 0)
(-0.0141951 -0.205053 0)
(-0.0134941 -0.2383 0)
(-0.00520128 -0.241289 0)
(-7.38875e-05 0.0178193 0)
(-0.000584235 0.0267629 0)
(-0.00121215 0.0294887 0)
(-0.00187379 0.0307712 0)
(-0.00254263 0.0315642 0)
(-0.00318098 0.0321539 0)
(-0.00376926 0.0326664 0)
(-0.00429549 0.0331728 0)
(-0.00475133 0.0337218 0)
(-0.00513084 0.0343505 0)
(-0.00542961 0.0350901 0)
(-0.00564381 0.035968 0)
(-0.00576937 0.0370079 0)
(-0.00580112 0.0382299 0)
(-0.00573201 0.0396485 0)
(-0.00555219 0.0412718 0)
(-0.00524802 0.0430995 0)
(-0.00480076 0.0451224 0)
(-0.00418474 0.0473222 0)
(-0.00336464 0.0496708 0)
(-0.00229198 0.0521277 0)
(-0.000901839 0.0546307 0)
(0.000890175 0.057077 0)
(0.00319288 0.0592826 0)
(0.00611558 0.0608866 0)
(0.00969227 0.0612007 0)
(0.0138032 0.0591512 0)
(0.0179934 0.0530903 0)
(0.0213923 0.0412414 0)
(0.0230385 0.0231702 0)
(0.0225086 0.000489768 0)
(0.0198543 -0.0242408 0)
(0.0155122 -0.0490722 0)
(0.0100733 -0.0737794 0)
(0.00401749 -0.0997144 0)
(-0.00205182 -0.128945 0)
(-0.00735805 -0.163418 0)
(-0.0107024 -0.203413 0)
(-0.0117596 -0.241884 0)
(-0.00417664 -0.250633 0)
(-7.29992e-05 0.0181182 0)
(-0.000565058 0.0273235 0)
(-0.00116512 0.0301254 0)
(-0.0017888 0.0314188 0)
(-0.00240699 0.0321872 0)
(-0.00298023 0.0327293 0)
(-0.00348742 0.0331782 0)
(-0.00391553 0.0336103 0)
(-0.00425554 0.0340771 0)
(-0.00450095 0.034618 0)
(-0.00464664 0.0352652 0)
(-0.00468789 0.0360459 0)
(-0.00461944 0.0369832 0)
(-0.00443469 0.0380955 0)
(-0.00412487 0.0393948 0)
(-0.00367837 0.0408857 0)
(-0.00307974 0.0425635 0)
(-0.00230869 0.0444131 0)
(-0.00133855 0.0464081 0)
(-0.000134228 0.0485096 0)
(0.0013507 0.050663 0)
(0.0031758 0.0527893 0)
(0.00541415 0.0547688 0)
(0.00815198 0.0564084 0)
(0.0114682 0.0573733 0)
(0.0153752 0.0570886 0)
(0.0197447 0.054688 0)
(0.0241823 0.0489228 0)
(0.0279053 0.0383887 0)
(0.0299252 0.0225 0)
(0.0296178 0.00221925 0)
(0.0268719 -0.0205223 0)
(0.0221157 -0.0438862 0)
(0.0160557 -0.0676471 0)
(0.00924946 -0.093196 0)
(0.00232854 -0.122751 0)
(-0.00389864 -0.158452 0)
(-0.00807232 -0.20078 0)
(-0.0105279 -0.243948 0)
(-0.00352288 -0.258436 0)
(-8.24295e-05 0.0184171 0)
(-0.000576918 0.0278697 0)
(-0.00116586 0.0307359 0)
(-0.00176517 0.0320274 0)
(-0.0023427 0.0327562 0)
(-0.0028572 0.0332339 0)
(-0.00328671 0.0336018 0)
(-0.00361799 0.0339412 0)
(-0.0038423 0.0343076 0)
(-0.00395355 0.0347421 0)
(-0.00394672 0.0352778 0)
(-0.003817 0.0359417 0)
(-0.00355882 0.0367559 0)
(-0.00316499 0.0377367 0)
(-0.00262613 0.0388939 0)
(-0.00193011 0.0402286 0)
(-0.00106117 0.0417319 0)
(4.82438e-07 0.0433836 0)
(0.00127981 0.0451503 0)
(0.00280856 0.0469845 0)
(0.00462656 0.0488208 0)
(0.00678273 0.0505688 0)
(0.00933353 0.0520993 0)
(0.0123382 0.0532195 0)
(0.0158435 0.0536276 0)
(0.0198332 0.0528457 0)
(0.0241712 0.0501838 0)
(0.0285128 0.0447055 0)
(0.032203 0.0353476 0)
(0.034339 0.0215248 0)
(0.0341933 0.00372286 0)
(0.0315181 -0.0167252 0)
(0.0266569 -0.0383581 0)
(0.0203095 -0.0609962 0)
(0.0130608 -0.0860193 0)
(0.00553303 -0.115784 0)
(-0.00144196 -0.152685 0)
(-0.00626443 -0.197453 0)
(-0.0100483 -0.245019 0)
(-0.00285623 -0.265928 0)
(-0.000105065 0.0187383 0)
(-0.000628029 0.0284231 0)
(-0.00122624 0.0313376 0)
(-0.00181697 0.0326098 0)
(-0.00236456 0.0332796 0)
(-0.00282626 0.0336727 0)
(-0.00318033 0.033939 0)
(-0.00341443 0.034166 0)
(-0.00352163 0.0344131 0)
(-0.00349752 0.0347229 0)
(-0.00333799 0.0351292 0)
(-0.00303909 0.0356588 0)
(-0.00259573 0.0363322 0)
(-0.00200103 0.037164 0)
(-0.00124582 0.0381612 0)
(-0.000318657 0.0393221 0)
(0.00079561 0.0406344 0)
(0.00211478 0.0420735 0)
(0.00365984 0.0436011 0)
(0.00545697 0.0451635 0)
(0.00753698 0.0466887 0)
(0.00993517 0.0480801 0)
(0.0126889 0.0492064 0)
(0.0158305 0.0498831 0)
(0.0193756 0.0498437 0)
(0.0232816 0.0486958 0)
(0.0274042 0.0458945 0)
(0.0314389 0.0407393 0)
(0.0348455 0.0324386 0)
(0.0368603 0.0204908 0)
(0.0367785 0.00506909 0)
(0.0342605 -0.0130248 0)
(0.0295318 -0.0327766 0)
(0.0231875 -0.0541293 0)
(0.015776 -0.0784735 0)
(0.00789186 -0.108272 0)
(0.00032772 -0.146238 0)
(-0.00496991 -0.1935 0)
(-0.00985641 -0.245372 0)
(-0.00216479 -0.272952 0)
(-0.000144901 0.0191102 0)
(-0.000729155 0.0290102 0)
(-0.00136109 0.0319509 0)
(-0.00196077 0.03318 0)
(-0.00248871 0.0337655 0)
(-0.00290162 0.034049 0)
(-0.00317987 0.0341903 0)
(-0.00331331 0.0342831 0)
(-0.00329897 0.0343914 0)
(-0.00313595 0.0345587 0)
(-0.00282172 0.0348197 0)
(-0.00235421 0.0351999 0)
(-0.00172963 0.0357184 0)
(-0.000942011 0.0363875 0)
(1.6918e-05 0.0372119 0)
(0.00115768 0.0381875 0)
(0.00249324 0.0392996 0)
(0.00403848 0.0405202 0)
(0.00581023 0.0418082 0)
(0.00782756 0.0431064 0)
(0.010111 0.04434 0)
(0.0126813 0.0454117 0)
(0.0155569 0.0461937 0)
(0.018746 0.0465156 0)
(0.0222363 0.0461463 0)