/*--------------------------------*- C++ -*----------------------------------*\
  =========                 |
  \\      /  F ield         | OpenFOAM: The Open Source CFD Toolbox
   \\    /   O peration     | Website:  https://openfoam.org
    \\  /    A nd           | Version:  12
     \\/     M anipulation  |
\*---------------------------------------------------------------------------*/
FoamFile
{
    format      ascii;
    class       volScalarField;
    location    "7";
    object      epsilon;
}
// * * * * * * * * * * * * * * * * * * * * * * * * * * * * * * * * * * * * * //

dimensions      [0 2 -3 0 0 0 0];

internalField   nonuniform List<scalar> 
1600
(
2.58186e-05
8.90962e-05
0.000173861
0.000175852
0.000162119
0.000166409
0.000214061
0.000360388
0.000537795
0.000757635
0.0011856
0.00149847
0.00165549
0.00182995
0.00210919
0.00247573
0.00282547
0.00322002
0.003609
0.00404662
0.00450242
0.00501789
0.00558216
0.00623571
0.00700137
0.00768976
0.00839019
0.00898959
0.00950949
0.00979269
0.0099055
0.0097115
0.00890992
0.00754728
0.00565098
0.00331547
0.00159612
0.000663155
0.000209199
4.30675e-05
0.000125097
0.000157886
0.00019559
0.000188117
0.000183078
0.000218541
0.000378907
0.000806292
0.00144468
0.00235589
0.00418978
0.00513475
0.0052513
0.00494028
0.00462008
0.0044686
0.00435106
0.00431126
0.00430553
0.0043967
0.00452807
0.00472832
0.00494877
0.00522417
0.00555784
0.00596813
0.00642749
0.00695874
0.00749038
0.00794837
0.00816045
0.00819997
0.00766492
0.00663732
0.00492309
0.00282604
0.00117037
0.000504784
0.000180585
7.32349e-05
0.000378663
0.000403844
0.000413026
0.000394208
0.000444272
0.000732646
0.00158473
0.00324848
0.00530979
0.00619085
0.00612417
0.005219
0.00477841
0.00421268
0.00382279
0.00353516
0.00330881
0.00316085
0.00307432
0.00303733
0.0030275
0.00306337
0.00316301
0.00330342
0.00348501
0.00370497
0.0039705
0.00428792
0.00466116
0.00510844
0.00563001
0.00612037
0.00635075
0.00631305
0.0054945
0.00370759
0.00117963
0.000319291
0.000113204
6.01462e-05
0.000873805
0.000792139
0.00078839
0.000843702
0.00122459
0.00236973
0.00449384
0.00608472
0.00648362
0.00591386
0.00513651
0.00399665
0.00337022
0.00287458
0.00263135
0.00240864
0.00229623
0.00222663
0.00219846
0.00219263
0.00222393
0.00227897
0.0023567
0.00245519
0.00257626
0.00272245
0.00289952
0.00311235
0.00336676
0.00366813
0.00401953
0.00443355
0.00497433
0.00554642
0.00577557
0.00533167
0.00272013
0.000464105
9.47092e-05
4.23414e-05
0.00165694
0.00135158
0.00143247
0.00179756
0.00285571
0.00474357
0.00602734
0.00630044
0.00579958
0.00443396
0.00331081
0.00273227
0.00233681
0.00208473
0.00194813
0.00186152
0.00182654
0.00181626
0.00182891
0.0018642
0.00190942
0.00196525
0.002031
0.00210981
0.00220483
0.00232141
0.00246624
0.00264574
0.0028627
0.00311933
0.00341559
0.00374972
0.00413617
0.00464447
0.0053981
0.00575008
0.00514714
0.00147775
0.000184007
5.03355e-05
0.00277952
0.00214344
0.00241979
0.00316643
0.00459084
0.00570399
0.00598109
0.00558157
0.00403042
0.00289459
0.00233119
0.00199219
0.00177802
0.00167192
0.00162253
0.00160483
0.00160337
0.00162571
0.00165286
0.00168883
0.00172878
0.00177716
0.00183533
0.00190749
0.00199727
0.00211004
0.002251
0.00242544
0.00263785
0.00289035
0.00318144
0.00351252
0.00386123
0.00424677
0.00473085
0.0053805
0.0056563
0.00395405
0.00056916
9.72645e-05
0.00420724
0.00315992
0.00360038
0.00447862
0.00537363
0.00564976
0.00536761
0.00392041
0.00267267
0.00208055
0.00177349
0.00158658
0.00149622
0.00145671
0.00144227
0.00143905
0.00144394
0.00145503
0.00146613
0.00148269
0.00150429
0.0015371
0.00158337
0.00164854
0.0017371
0.00185526
0.00200905
0.00220463
0.0024466
0.00273573
0.00306574
0.00342181
0.0037945
0.00416285
0.0045441
0.00500241
0.00535234
0.0052385
0.00145459
0.000222127
0.00573782
0.00427263
0.0046858
0.00522339
0.00543125
0.0052129
0.00401651
0.00262387
0.0019528
0.00163011
0.00145786
0.0013672
0.00132464
0.0013039
0.00128905
0.00127505
0.00126073
0.00124627
0.0012352
0.0012306
0.00123043
0.00124761
0.00128058
0.00133514
0.00141636
0.00153072
0.00168631
0.00189241
0.00215858
0.00249139
0.00288858
0.00333102
0.00377951
0.00419772
0.00453974
0.0049104
0.00528047
0.00541112
0.00318468
0.000558646
0.00705937
0.00529138
0.00548148
0.00555423
0.00520202
0.0042505
0.00278104
0.00193544
0.00155219
0.00136698
0.00126941
0.00121923
0.00118864
0.00116
0.001128
0.00109259
0.00105569
0.00102078
0.000991302
0.000973049
0.000965756
0.000966446
0.000991135
0.00103431
0.0011041
0.00120578
0.00134873
0.0015448
0.00180901
0.00215754
0.00260199
0.0031372
0.00372383
0.00427991
0.00474907
0.0050052
0.00532583
0.00549415
0.00483192
0.00150805
0.00802559
0.00604553
0.00595117
0.00550342
0.00463367
0.00319953
0.00205813
0.00154627
0.00131265
0.00119912
0.0011369
0.00109623
0.00105665
0.00101099
0.000960136
0.00090731
0.000856354
0.000811218
0.000774535
0.000749911
0.000738467
0.000735673
0.000751356
0.00078604
0.000842959
0.000928286
0.00105059
0.00122261
0.00146221
0.00179286
0.00224092
0.00282554
0.00353553
0.00429551
0.00496638
0.00531796
0.00552078
0.0056418
0.00539433
0.00268377
0.00871846
0.00653435
0.00615944
0.00528546
0.00386828
0.00239715
0.00164246
0.00130867
0.00115428
0.00107772
0.00102597
0.000978989
0.000924776
0.000863906
0.000800453
0.00073901
0.000683439
0.000636543
0.000599709
0.00057471
0.000562737
0.00055917
0.00056933
0.000596996
0.000642623
0.00071215
0.000813039
0.00095731
0.00116304
0.00145672
0.00187423
0.00245607
0.0032284
0.00415802
0.00508538
0.00564525
0.00587604
0.00595808
0.00577284
0.00382521
0.00909235
0.00675105
0.00610541
0.00484221
0.00314082
0.00191723
0.00138397
0.00114933
0.00103911
0.000977754
0.000923814
0.000865895
0.000799431
0.000729364
0.000660832
0.000598203
0.00054422
0.000500238
0.000466559
0.0004437
0.000432603
0.000429053
0.000435909
0.000457818
0.000494314
0.000550408
0.000632462
0.000750994
0.000922684
0.0011739
0.0015447
0.00209032
0.00287105
0.003913
0.00512178
0.00598803
0.00627856
0.00632736
0.00612857
0.00474982
0.00907917
0.00673503
0.00593813
0.00434126
0.00255507
0.00161047
0.00121023
0.00103312
0.000947498
0.000889267
0.000828677
0.000761109
0.000687331
0.000613989
0.000545933
0.000486437
0.000436891
0.000397488
0.000367798
0.000347565
0.000337626
0.000334309
0.000339022
0.000356392
0.000385808
0.00043127
0.000498114
0.000595171
0.000736926
0.000947465
0.00126641
0.00175548
0.00249869
0.00357758
0.0049958
0.00631433
0.00679202
0.00683303
0.00644626
0.00561863
0.00896198
0.00663104
0.00562034
0.0038311
0.00215875
0.0014027
0.00108519
0.000942519
0.000870414
0.000809748
0.000742518
0.000668621
0.000592085
0.000519592
0.000455045
0.00040042
0.000355996
0.000321214
0.000295233
0.000277371
0.000268482
0.000265416
0.000268669
0.000282545
0.000306576
0.000343916
0.000399036
0.000479274
0.000596889
0.000773003
0.00104449
0.00147422
0.00215986
0.00322082
0.00471932
0.00647415
0.00732461
0.007412
0.00690869
0.0064231
0.00868427
0.00639784
0.00524664
0.00338799
0.00188897
0.00125428
0.000990122
0.000870466
0.000804003
0.000739495
0.000667357
0.000590393
0.000514253
0.00044483
0.000384918
0.000335374
0.000295714
0.000264954
0.000242064
0.000226217
0.000218144
0.000215291
0.000217531
0.000228715
0.000248627
0.00027978
0.000325949
0.000393242
0.000491884
0.000639809
0.000869701
0.00124166
0.00186095
0.00288526
0.00446438
0.00652118
0.00787651
0.00806701
0.00741829
0.00721069
0.00820644
0.00611266
0.00486612
0.00303227
0.00169702
0.00114489
0.000916358
0.000811873
0.000747031
0.000679156
0.000604115
0.000526509
0.000452519
0.000386992
0.000331731
0.000286765
0.000251147
0.00022368
0.000203268
0.00018907
0.000181607
0.000178914
0.00018045
0.000189544
0.000206257
0.000232653
0.000271989
0.000329465
0.000413698
0.000539816
0.000735991
0.00105666
0.00160548
0.00256031
0.00414927
0.00645807
0.0083915
0.00880456
0.00802127
0.00797656
0.00765713
0.00580076
0.00450395
0.00275606
0.0015577
0.00106275
0.000858514
0.000763916
0.000699016
0.0006289
0.000552645
0.000475902
0.00040478
0.000343146
0.000292025
0.000250895
0.000218549
0.0001937
0.000175245
0.000162354
0.000155334
0.000152749
0.000153799
0.000161256
0.000175432
0.00019809
0.000232101
0.000282004
0.000355204
0.000464552
0.000634122
0.000912117
0.00139693
0.0022765
0.00383632
0.00628898
0.00885114
0.00960689
0.00867025
0.00873848
0.00700648
0.00550594
0.0041822
0.00254813
0.0014576
0.00100175
0.000813376
0.000724958
0.000659568
0.000588355
0.000512106
0.00043702
0.000368854
0.000310687
0.000263003
0.000224944
0.000195166
0.000172355
0.000155419
0.000143546
0.000136826
0.000134284
0.000134999
0.000141176
0.000153322
0.000172999
0.000202797
0.000246784
0.000311502
0.000408088
0.000557127
0.000800483
0.00122807
0.00202824
0.00353199
0.00607786
0.00922403
0.0104556
0.0094386
0.00949544
0.00636844
0.00521828
0.00390417
0.00239697
0.00138798
0.000956009
0.000778447
0.000693663
0.000627979
0.00055673
0.00048137
0.000408247
0.000342768
0.000287484
0.000242523
0.00020683
0.000179006
0.000157739
0.000141956
0.00013086
0.000124314
0.000121732
0.000122204
0.000127388
0.00013791
0.000155198
0.000181625
0.000220906
0.000278983
0.00036579
0.000499199
0.000715494
0.00109528
0.0018207
0.00325293
0.00585054
0.00950699
0.0113331
0.0102842
0.0102478
0.00562824
0.0049626
0.00367725
0.00229093
0.00134364
0.000926399
0.000752308
0.000669234
0.000603646
0.000533137
0.000459155
0.000388103
0.000325006
0.000272
0.000229056
0.000195072
0.000168653
0.000148503
0.000133563
0.000123042
0.000116585
0.000113865
0.000114146
0.000118543
0.000127764
0.000143149
0.00016689
0.00020241
0.000255212
0.000334468
0.000456024
0.000651467
0.000991937
0.00164873
0.003001
0.00563925
0.00967969
0.0122392
0.0112468
0.0110002
0.00502869
0.0047448
0.00349605
0.00222362
0.00132402
0.000904795
0.000734132
0.000650551
0.000585357
0.000516378
0.000444491
0.00037543
0.000314065
0.000262677
0.000221195
0.00018847
0.000163087
0.000143745
0.00012939
0.000119245
0.000112836
0.000109901
0.000110249
0.000114163
0.000122463
0.000136369
0.000157787
0.000189969
0.000238537
0.000311918
0.000424526
0.000604355
0.000913759
0.00151031
0.00277577
0.00540503
0.00980338
0.0131561
0.0123221
0.0117438
0.00451939
0.00454396
0.00337971
0.00218622
0.00132954
0.000905295
0.000721845
0.000637464
0.000572837
0.000505861
0.000435779
0.000368851
0.000309785
0.000260039
0.000219636
0.000187603
0.000162645
0.000143533
0.000129254
0.000119058
0.000112464
0.000109246
0.000109455
0.000112852
0.000120582
0.000133629
0.000153583
0.000183606
0.000228623
0.000296803
0.000402583
0.000570994
0.000856528
0.00140219
0.00258311
0.00517709
0.00986132
0.0140849
0.0135193
0.0124856
0.00406868
0.00437616
0.00330641
0.00219022
0.00134994
0.000913666
0.000721991
0.000628517
0.000564274
0.000499632
0.00043353
0.000369278
0.000311053
0.000261735
0.000221548
0.000189615
0.000164701
0.000145608
0.000131343
0.00012116
0.000114576
0.000111364
0.000111497
0.000114295
0.000121161
0.00013335
0.000152441
0.000181314
0.000224262
0.000289301
0.00039014
0.000550136
0.000817224
0.00132131
0.00242154
0.00495621
0.00988263
0.0150434
0.0148211
0.0132122
0.00365938
0.00424438
0.00328773
0.00221301
0.00139392
0.000934931
0.000727035
0.000627863
0.00056088
0.000499212
0.000435082
0.000372409
0.000315467
0.000266775
0.000226874
0.000195026
0.000170095
0.000150945
0.000136612
0.000126357
0.000119683
0.000116368
0.000116502
0.00011901
0.000125378
0.000136988
0.000155001
0.000182137
0.000223351
0.000286674
0.000384869
0.0005403
0.000796502
0.00126503
0.00229325
0.00474857
0.00987998
0.0160038
0.0162401
0.0139284
0.00327648
0.00414195
0.00330086
0.0022668
0.00146327
0.000977765
0.000741109
0.000631011
0.000561895
0.000500968
0.000439474
0.000379577
0.000324627
0.000276883
0.000237141
0.000205081
0.000179801
0.000160277
0.000145593
0.000135024
0.000128067
0.000124517
0.00012466
0.000127037
0.000133143
0.000144533
0.000162164
0.000188601
0.000228219
0.00028874
0.000384076
0.000537296
0.000788418
0.00123336
0.00219664
0.00456277
0.00983083
0.0169643
0.0177787
0.0146203
0.00291464
0.00406912
0.0033399
0.00235412
0.00155639
0.00104186
0.000770381
0.000640588
0.000565969
0.000505505
0.000447558
0.000390641
0.000337623
0.000290824
0.000251294
0.000219001
0.000193288
0.000173283
0.000158151
0.000147203
0.000139938
0.000136159
0.000136339
0.000138709
0.000144757
0.000156162
0.00017373
0.000199919
0.000239014
0.000298726
0.000392613
0.000543214
0.000788084
0.00122075
0.00212777
0.00440562
0.0097773
0.0178997
0.0194475
0.0152899
0.00256201
0.00400716
0.00341137
0.00247303
0.00167997
0.00113172
0.000819142
0.000661125
0.000575347
0.000513857
0.000458174
0.000404299
0.000353615
0.000308154
0.000269123
0.000236772
0.000210709
0.000190251
0.000174676
0.000163359
0.000155814
0.000151861
0.000152116
0.000154589
0.000160775
0.000172413
0.000190214
0.00021657
0.000255685
0.000315252
0.000409117
0.000560722
0.000806044
0.00122044
0.00209302
0.00427661
0.00973893
0.0188237
0.0212176
0.0159234
0.00221903
0.00395459
0.00351178
0.00260604
0.00182813
0.00125055
0.000892764
0.00069916
0.000594405
0.000526883
0.000471498
0.000420132
0.000371993
0.000328331
0.000290271
0.000258254
0.00023213
0.000211423
0.000195552
0.000183991
0.000176271
0.000172294
0.000172679
0.000175367
0.000181892
0.000193965
0.000212269
0.000239188
0.000278919
0.000339245
0.000434179
0.000587856
0.000836249
0.00124548
0.00208131
0.00416573
0.0096491
0.0197373
0.0230747
0.0165255
0.00187303
0.00386309
0.00358577
0.00278238
0.00200443
0.00140062
0.000996075
0.000759467
0.000627722
0.000547776
0.000489051
0.000438564
0.000392576
0.000350945
0.000314332
0.000283162
0.000257442
0.000236877
0.000221026
0.00020949
0.000201801
0.000198074
0.000198669
0.000201709
0.00020879
0.000221495
0.000240558
0.000268424
0.000309369
0.000371399
0.000468704
0.000626255
0.00088057
0.0012902
0.00209154
0.00409266
0.00955434
0.0206097
0.0249615
0.0170821
0.00156335
0.00374555
0.00362421
0.00297787
0.0022055
0.00158512
0.00113736
0.000852127
0.000683633
0.00058255
0.000514451
0.000461374
0.000415942
0.000375905
0.000340921
0.000311061
0.00028629
0.000266397
0.000251033
0.00023995
0.000232593
0.000229539
0.000230458
0.000234022
0.000241926
0.000255473
0.000275562
0.000304806
0.000347634
0.000412459
0.000513569
0.000676826
0.000939424
0.0013582
0.00213734
0.00405981
0.00944918
0.0213915
0.0268022
0.0176051
0.00130075
0.00350423
0.00365402
0.00316967
0.00241566
0.00179505
0.00131745
0.000985714
0.000773708
0.000641762
0.00055584
0.000494194
0.000445618
0.000405185
0.000370971
0.00034224
0.000318603
0.000299757
0.000285289
0.00027513
0.000268408
0.000266562
0.000267943
0.000272237
0.000281283
0.000295946
0.00031742
0.000348631
0.000394201
0.000463209
0.000569858
0.000741238
0.00101463
0.00144927
0.00221376
0.00405452
0.009365
0.0220832
0.0284999
0.0180867
0.00106545
0.00301743
0.00370316
0.00335413
0.00263631
0.00202747
0.00153761
0.00116942
0.000912063
0.00074037
0.00062608
0.000546899
0.000488675
0.000443556
0.00040752
0.000378505
0.00035533
0.00033735
0.000323796
0.000314818
0.000308884
0.000308679
0.000310656
0.000315913
0.000326477
0.000342684
0.000366118
0.000400252
0.000449824
0.000525019
0.000639512
0.000822585
0.00111013
0.0015702
0.00233585
0.00412689
0.00933298
0.0226542
0.0299725
0.0185518
0.000849148
0.00229973
0.00363975
0.00342976
0.00284866
0.00226704
0.00178952
0.00140714
0.00111515
0.000901889
0.000750088
0.00064214
0.000563948
0.000505944
0.000461957
0.00042832
0.000402634
0.00038353
0.000369675
0.0003609
0.000355809
0.000356285
0.000359147
0.000365848
0.000378065
0.000396555
0.000422965
0.000461722
0.000517366
0.000602067
0.000728046
0.000929101
0.00123703
0.00173765
0.00252729
0.00431103
0.00941304
0.0232167
0.03111
0.0190205
0.0007355
0.00163379
0.00338613
0.00337201
0.0030573
0.00252014
0.00207365
0.00169909
0.00139071
0.00114464
0.000953809
0.000808734
0.000699605
0.000617572
0.000556322
0.000510398
0.000476232
0.000451455
0.000433874
0.000422898
0.000416483
0.000416966
0.000420248
0.000428063
0.000442395
0.000464516
0.000495834
0.000542524
0.000608183
0.000708891
0.000853551
0.00108556
0.00142779
0.00199836
0.00285583
0.00471221
0.00978876
0.0239118
0.0317869
0.019369
0.000754582
0.00127099
0.00279941
0.00319198
0.00307773
0.00276986
0.00239939
0.00206808
0.00177043
0.00150902
0.00128688
0.00110339
0.000955233
0.000837999
0.000745835
0.0006748
0.00062026
0.0005803
0.000551356
0.000532563
0.000519959
0.000517667
0.00052055
0.000528891
0.000545998
0.000574813
0.000615689
0.000678099
0.000763354
0.00089549
0.00107658
0.00137023
0.00178162
0.00248817
0.00350675
0.00560708
0.0108067
0.0250202
0.0320611
0.0194905
0.0010546
0.00111748
0.002118
0.00277408
0.00303943
0.00296575
0.00277038
0.00251415
0.00225841
0.00200942
0.00177418
0.00156113
0.00137466
0.00121599
0.00108823
0.000986253
0.000905828
0.000843632
0.000796919
0.000764991
0.000743806
0.000738189
0.000742514
0.000755892
0.000783725
0.000830111
0.000896672
0.000998274
0.00113299
0.00133996
0.00160959
0.00204621
0.00262206
0.00362616
0.00500407
0.00766061
0.013157
0.0269154
0.0320445
0.0194339
0.00168247
0.00128315
0.00196516
0.00273771
0.00320061
0.00340972
0.0034051
0.00330338
0.00309916
0.00286709
0.00262702
0.00239206
0.00217397
0.00197943
0.00181035
0.00166998
0.00155793
0.00147165
0.00141203
0.00137242
0.00136189
0.00137082
0.00139804
0.00145461
0.00154015
0.00166354
0.00182271
0.00204541
0.00233831
0.00275584
0.0032873
0.00409869
0.00511845
0.006818
0.00893948
0.0129027
0.0184907
0.0302975
0.0319069
0.0188286
0.00279633
0.00195424
0.00275242
0.00371611
0.00445456
0.00498493
0.00522307
0.00525422
0.00515374
0.00494105
0.00468936
0.0044303
0.00418437
0.00396865
0.00378962
0.00365371
0.00356179
0.00351939
0.00353077
0.0035752
0.003675
0.00383401
0.0040528
0.00433016
0.00469641
0.00513488
0.00570563
0.00637712
0.0072228
0.00825242
0.00963774
0.011439
0.0137153
0.0168505
0.0205281
0.0262482
0.0313081
0.036487
0.0328736
0.0177465
0.00475481
0.00461692
0.00787404
0.0105782
0.0120906
0.0129295
0.0132515
0.013227
0.0130829
0.0127843
0.0124468
0.0121395
0.0119029
0.0117424
0.0117291
0.0117893
0.011949
0.0122455
0.0126788
0.0132246
0.0139067
0.0147009
0.0156845
0.0167805
0.0181446
0.0196053
0.0214718
0.0233715
0.0259177
0.0283468
0.0316923
0.0346254
0.0389525
0.0422621
0.0473642
0.0497875
0.0485868
0.0427411
0.0333006
0.0154829
0.0032255
0.00499534
0.00649367
0.00805824
0.00947435
0.0107519
0.0118149
0.0127066
0.0133174
0.0137244
0.0139631
0.0140598
0.0140376
0.0139732
0.013837
0.013669
0.0134945
0.0133077
0.0131332
0.0129668
0.012826
0.0127014
0.0126154
0.0125465
0.0125283
0.0125425
0.0125904
0.0126657
0.0128334
0.0129676
0.0132584
0.0134619
0.0139344
0.0142924
0.0150947
0.0156001
0.0164552
0.0165199
0.0159579
0.0133321
)
;

boundaryField
{
    movingWall
    {
        type            epsilonWallFunction;
        value           nonuniform List<scalar> 
40
(
0.0032255
0.00499534
0.00649367
0.00805824
0.00947435
0.0107519
0.0118149
0.0127066
0.0133174
0.0137244
0.0139631
0.0140598
0.0140376
0.0139732
0.013837
0.013669
0.0134945
0.0133077
0.0131332
0.0129668
0.012826
0.0127014
0.0126154
0.0125465
0.0125283
0.0125425
0.0125904
0.0126657
0.0128334
0.0129676
0.0132584
0.0134619
0.0139344
0.0142924
0.0150947
0.0156001
0.0164552
0.0165199
0.0159579
0.0133321
)
;
    }
    fixedWalls
    {
        type            epsilonWallFunction;
        value           nonuniform List<scalar> 
120
(
2.58186e-05
0.000125097
0.000378663
0.000873805
0.00165694
0.00277952
0.00420724
0.00573782
0.00705937
0.00802559
0.00871846
0.00909235
0.00907917
0.00896198
0.00868427
0.00820644
0.00765713
0.00700648
0.00636844
0.00562824
0.00502869
0.00451939
0.00406868
0.00365938
0.00327648
0.00291464
0.00256201
0.00221903
0.00187303
0.00156335
0.00130075
0.00106545
0.000849148
0.0007355
0.000754582
0.0010546
0.00168247
0.00279633
0.00475481
0.0032255
4.30675e-05
7.32349e-05
6.01462e-05
4.23414e-05
5.03355e-05
9.72645e-05
0.000222127
0.000558646
0.00150805
0.00268377
0.00382521
0.00474982
0.00561863
0.0064231
0.00721069
0.00797656
0.00873848
0.00949544
0.0102478
0.0110002
0.0117438
0.0124856
0.0132122
0.0139284
0.0146203
0.0152899
0.0159234
0.0165255
0.0170821
0.0176051
0.0180867
0.0185518
0.0190205
0.019369
0.0194905
0.0194339
0.0188286
0.0177465
0.0154829
0.0133321
2.58186e-05
8.90962e-05
0.000173861
0.000175852
0.000162119
0.000166409
0.000214061
0.000360388
0.000537795
0.000757635
0.0011856
0.00149847
0.00165549
0.00182995
0.00210919
0.00247573
0.00282547
0.00322002
0.003609
0.00404662
0.00450242
0.00501789
0.00558216
0.00623571
0.00700137
0.00768976
0.00839019
0.00898959
0.00950949
0.00979269
0.0099055
0.0097115
0.00890992
0.00754728
0.00565098
0.00331547
0.00159612
0.000663155
0.000209199
4.30675e-05
)
;
    }
    frontAndBack
    {
        type            empty;
    }
}


// ************************************************************************* //
