/*--------------------------------*- C++ -*----------------------------------*\
  =========                 |
  \\      /  F ield         | OpenFOAM: The Open Source CFD Toolbox
   \\    /   O peration     | Website:  https://openfoam.org
    \\  /    A nd           | Version:  12
     \\/     M anipulation  |
\*---------------------------------------------------------------------------*/
FoamFile
{
    format      ascii;
    class       volScalarField;
    location    "7";
    object      k;
}
// * * * * * * * * * * * * * * * * * * * * * * * * * * * * * * * * * * * * * //

dimensions      [0 2 -2 0 0 0 0];

internalField   nonuniform List<scalar> 
1600
(
2.0182e-06
6.96351e-06
1.3588e-05
1.37417e-05
1.26678e-05
1.30022e-05
1.67245e-05
2.81587e-05
4.20256e-05
5.92137e-05
9.26642e-05
0.000117111
0.00012938
0.000143018
0.000164847
0.000193496
0.000220827
0.000251663
0.00028206
0.000316262
0.00035188
0.000392163
0.000436258
0.000487332
0.000547165
0.000600949
0.00065568
0.000702512
0.000743135
0.000765261
0.000774074
0.000758912
0.000696281
0.00058981
0.000441627
0.000259125
0.000124756
5.1837e-05
1.63535e-05
3.36683e-06
9.77824e-06
4.52209e-05
8.70911e-05
9.40925e-05
9.20811e-05
9.85606e-05
0.000138001
0.000233763
0.000325806
0.00043814
0.000643143
0.000748768
0.000775366
0.000779119
0.000780464
0.000813383
0.000834761
0.000875331
0.00090963
0.000956782
0.0010037
0.00105877
0.00111434
0.00117065
0.00122363
0.00128842
0.00135219
0.00142013
0.0014779
0.00151189
0.00152397
0.00148905
0.00138281
0.00119144
0.000934079
0.000567271
0.000252579
0.000104206
3.62429e-05
5.72462e-06
2.95976e-05
0.000119125
0.000188561
0.000202591
0.000221482
0.000290499
0.000476286
0.000771714
0.00101593
0.00110559
0.00105306
0.000945521
0.000893213
0.000874148
0.000869501
0.000875065
0.000886939
0.00090505
0.000926002
0.000952848
0.000979645
0.00100707
0.00103641
0.00106861
0.00110385
0.00114178
0.00118131
0.00122226
0.00126219
0.00129925
0.00131995
0.00132769
0.00130979
0.00119854
0.00101512
0.000643887
0.000236539
8.57628e-05
3.26039e-05
4.70133e-06
6.8296e-05
0.000246368
0.000342856
0.000383246
0.000477918
0.00070069
0.00102611
0.00120423
0.0012319
0.00109505
0.000993104
0.00090916
0.000873712
0.000859855
0.00085553
0.00085747
0.000865768
0.000876917
0.000890175
0.00090557
0.00092224
0.000942799
0.000963673
0.000986803
0.00101085
0.00103644
0.0010632
0.00109089
0.00111821
0.00114227
0.00115912
0.00116688
0.00116825
0.00114316
0.00108177
0.000904477
0.000388384
9.2759e-05
2.48312e-05
3.30928e-06
0.000129499
0.000432519
0.00056367
0.000653955
0.000841798
0.00112968
0.00127558
0.00128728
0.00116126
0.000982557
0.00089127
0.000848247
0.00082952
0.000822172
0.000820306
0.000827282
0.000840318
0.000855492
0.000873044
0.000891062
0.000909357
0.000927525
0.000945555
0.000964438
0.000984687
0.00100714
0.00103204
0.00105883
0.00108522
0.00110701
0.00112142
0.00112821
0.00112997
0.00111789
0.00108854
0.0010149
0.000760716
0.000211109
3.54548e-05
3.93366e-06
0.000217227
0.000664255
0.000830578
0.000959551
0.00116707
0.00129216
0.00130531
0.00119954
0.000978643
0.000869804
0.000820445
0.000799028
0.000791578
0.000790583
0.000801377
0.000816441
0.00083398
0.000851092
0.00086891
0.000885614
0.000901959
0.000917868
0.000934405
0.00095211
0.000972619
0.000996505
0.00102454
0.00105668
0.00109202
0.00112982
0.00115029
0.00115579
0.00115379
0.00113665
0.00109932
0.00104144
0.000904352
0.00043831
7.84235e-05
7.60047e-06
0.000328798
0.000902956
0.00109822
0.00121163
0.00129894
0.00131347
0.00122592
0.000996709
0.000857516
0.000798446
0.000774197
0.000766327
0.000765627
0.000777669
0.000792867
0.00080812
0.000823071
0.000836542
0.000848268
0.000857883
0.000867169
0.000877537
0.000891154
0.000908982
0.000931745
0.000960677
0.00099647
0.00103927
0.00108807
0.00113998
0.00119379
0.0012324
0.00124135
0.00123372
0.00118817
0.00109539
0.000958323
0.000687606
0.000159813
1.7357e-05
0.000448407
0.00113928
0.00131053
0.00134736
0.00134652
0.00125454
0.00104532
0.000862056
0.000784569
0.000754224
0.000744417
0.000743186
0.000753214
0.000767203
0.00077868
0.000788496
0.000793589
0.00079559
0.000796173
0.000796685
0.00079999
0.000806737
0.000818181
0.000835223
0.000859244
0.000891474
0.000933193
0.000985378
0.0010482
0.0011199
0.00119507
0.00126485
0.00130958
0.00131761
0.00130541
0.00122929
0.00106013
0.000787431
0.000274076
4.36523e-05
0.000551685
0.00132976
0.00146224
0.00143608
0.00131392
0.00112069
0.000891975
0.000783543
0.000740387
0.000725958
0.000723195
0.000728973
0.000740019
0.00074565
0.000747613
0.000745745
0.000738499
0.000731814
0.00072524
0.000722028
0.000721133
0.000724818
0.000734626
0.00075072
0.000774623
0.000807501
0.000851033
0.000907043
0.000977356
0.00106283
0.00116145
0.0012649
0.0013502
0.00138933
0.00139221
0.00135154
0.00121396
0.000942993
0.000497796
0.000117841
0.000627195
0.00145848
0.00155957
0.00143571
0.00123177
0.000969783
0.000804449
0.000736452
0.000711942
0.000705602
0.000705523
0.000711273
0.000713471
0.000710554
0.000701616
0.000689429
0.000675415
0.000663086
0.000652637
0.000646918
0.000644751
0.000646208
0.000655377
0.000670587
0.000693725
0.000725686
0.000768241
0.000823538
0.00089439
0.000983843
0.00109393
0.0012226
0.00135824
0.0014508
0.0014783
0.0014611
0.00134154
0.00106265
0.000606293
0.000209711
0.000681344
0.00154401
0.00161858
0.00140975
0.00111592
0.000865838
0.000750658
0.000705293
0.000689975
0.000686227
0.000685844
0.000686003
0.000679241
0.000666526
0.000649419
0.000631016
0.000613217
0.000598074
0.000586075
0.000579369
0.00057676
0.000577267
0.000585957
0.000600447
0.000622616
0.000653247
0.00069398
0.000746936
0.000815177
0.000902757
0.0010142
0.00115229
0.00131273
0.00147462
0.00155782
0.00156994
0.00149431
0.00122921
0.000749312
0.000298895
0.000710566
0.00157662
0.00162123
0.00135212
0.00100753
0.000800801
0.000714531
0.000681374
0.000669755
0.00066544
0.00066237
0.000654933
0.000639826
0.000619969
0.000597879
0.000576324
0.000556871
0.000540711
0.000528284
0.000521175
0.000518365
0.00051836
0.000526295
0.000539995
0.000561047
0.000590274
0.000629138
0.000679597
0.000744598
0.000828533
0.000937516
0.00107845
0.00125502
0.00145808
0.0016109
0.00165576
0.00161412
0.00136324
0.000866806
0.000371135
0.000709537
0.00157325
0.00160525
0.00127693
0.000924274
0.000755931
0.000686963
0.000660024
0.000649269
0.000643798
0.000635761
0.000621083
0.000599764
0.00057547
0.000550837
0.000528023
0.000508108
0.000491749
0.000479243
0.000471679
0.0004685
0.000468203
0.000474963
0.000487684
0.000507484
0.000535286
0.000572411
0.000620607
0.000682467
0.000762053
0.00086567
0.00100212
0.00118048
0.00140165
0.00163337
0.00174281
0.00174312
0.00151951
0.000986996
0.000439014
0.000700381
0.00155438
0.00156678
0.00119872
0.000866697
0.00072221
0.000663651
0.00064001
0.000629522
0.000621329
0.000607974
0.000587588
0.00056221
0.000535518
0.000509863
0.000486775
0.000466909
0.000450596
0.000438013
0.000429851
0.000426178
0.000425518
0.000430923
0.000442467
0.000460909
0.000487258
0.000522788
0.00056912
0.000628561
0.000704756
0.000803771
0.00093532
0.00111256
0.00134616
0.00162617
0.00181532
0.00184824
0.00166
0.00110654
0.000501863
0.00067868
0.00151236
0.00150965
0.00113034
0.000824076
0.000695102
0.000643048
0.000621288
0.000610569
0.000599036
0.000581059
0.000556647
0.000528871
0.000501088
0.000475223
0.000452292
0.000432645
0.000416421
0.00040372
0.000394898
0.000390651
0.000389575
0.00039362
0.000403842
0.000420816
0.000445608
0.000479511
0.000524091
0.000581423
0.000654666
0.000749175
0.000874269
0.00104469
0.00127778
0.00157836
0.00186103
0.0019536
0.00180651
0.00122697
0.000563394
0.00064134
0.00145874
0.0014456
0.00107365
0.000790842
0.000672491
0.000624805
0.000604488
0.000592797
0.000578069
0.000556512
0.00052947
0.000500415
0.000472282
0.00044659
0.000423978
0.000404596
0.000388471
0.000375656
0.00036631
0.000361434
0.000359926
0.000362734
0.000371569
0.000386987
0.000410101
0.000442274
0.000485115
0.00054062
0.000611624
0.000702863
0.000823023
0.000987477
0.00121818
0.00152994
0.00187989
0.00204137
0.00194485
0.00135061
0.000623227
0.000598414
0.0013978
0.00137967
0.0010275
0.00076452
0.000653502
0.000608925
0.000589667
0.000576685
0.000559303
0.000535187
0.000506542
0.000476898
0.000448798
0.000423436
0.000401198
0.000382105
0.000366117
0.000353246
0.000343614
0.000338103
0.000336166
0.000337926
0.000345398
0.000359213
0.000380534
0.000410818
0.00045178
0.000505442
0.000574421
0.000662802
0.0007782
0.000935483
0.00116013
0.00148019
0.00188299
0.00212381
0.00208056
0.00147455
0.00068275
0.000547566
0.00133846
0.00131659
0.000990745
0.000744029
0.000637867
0.000595456
0.00057685
0.000562606
0.000543234
0.000517433
0.000487898
0.000458068
0.000430184
0.000405205
0.000383361
0.000364591
0.000348807
0.000335991
0.000326231
0.000320175
0.000317816
0.000318738
0.00032494
0.000337171
0.000356641
0.000384905
0.000423838
0.0004756
0.000542792
0.000629059
0.000740938
0.000891914
0.0011081
0.00142669
0.00185924
0.00219401
0.00221043
0.00160656
0.000741886
0.000497705
0.00127695
0.0012579
0.000962506
0.000728781
0.00062513
0.000584075
0.000565889
0.000550694
0.000530025
0.000503254
0.000473329
0.000443554
0.000415962
0.000391372
0.000369923
0.000351506
0.000335993
0.000323333
0.000313577
0.000307104
0.000304316
0.000304592
0.000309667
0.000320401
0.000338042
0.000364216
0.000400979
0.000450692
0.000516094
0.000600581
0.00070971
0.000855327
0.00106301
0.00137616
0.00182614
0.00225642
0.00233584
0.00173963
0.000800661
0.000439857
0.00122436
0.00120567
0.000940865
0.000718526
0.000615595
0.00057494
0.000556783
0.000540942
0.000519594
0.000492449
0.000462499
0.000432923
0.000405653
0.000381439
0.000360377
0.000342326
0.000327129
0.000314698
0.00030505
0.000298341
0.000295075
0.000294871
0.000298968
0.000308356
0.000324284
0.000348391
0.000382928
0.000430476
0.000494062
0.000577063
0.000684226
0.000825551
0.00102492
0.00132953
0.0017883
0.00229957
0.00245861
0.00188101
0.000859438
0.000393001
0.00116754
0.00116062
0.000926054
0.000713442
0.000608468
0.00056721
0.000549086
0.000533093
0.000511693
0.000484692
0.000455044
0.000425821
0.000398889
0.000375007
0.000354287
0.000336584
0.000321712
0.000309543
0.000300046
0.000293316
0.000289649
0.00028917
0.000292508
0.00030065
0.000314896
0.000337043
0.000369415
0.000414725
0.000476425
0.000558085
0.000663881
0.000801954
0.000993795
0.00128875
0.00175206
0.00233012
0.00257853
0.00202509
0.000917527
0.000353197
0.00110911
0.00111792
0.000918353
0.000714613
0.000605755
0.000561939
0.00054291
0.000526917
0.000505955
0.000479585
0.000450492
0.000421649
0.000395052
0.000371543
0.000351232
0.000333919
0.000319389
0.00030748
0.000298131
0.000291412
0.000287565
0.000287015
0.000289857
0.000297084
0.00031013
0.000330478
0.000360435
0.000403296
0.000463081
0.000543487
0.000648408
0.000784153
0.000969081
0.00125285
0.00171693
0.00234534
0.0026956
0.00217706
0.000975479
0.000317972
0.0010516
0.00107972
0.000918487
0.00071947
0.000606974
0.000557805
0.000537741
0.000522022
0.000501994
0.000476667
0.000448605
0.000420763
0.000394813
0.000371626
0.000351454
0.000334263
0.000319856
0.000308066
0.000298812
0.000292133
0.000288221
0.000287508
0.000289784
0.000296268
0.000308578
0.000327886
0.00035616
0.000396949
0.000454442
0.00053333
0.00063779
0.000772212
0.000950846
0.00122255
0.00168378
0.00235227
0.00281034
0.00233324
0.00103224
0.000285983
0.000996175
0.00104556
0.000920597
0.000730577
0.000611395
0.000557787
0.000534055
0.00051824
0.000499358
0.000475566
0.00044894
0.000421681
0.000396072
0.000373145
0.000353215
0.00033625
0.000322081
0.000310539
0.000301532
0.000295072
0.000291326
0.000290709
0.000292685
0.000298431
0.000309756
0.00032775
0.000354948
0.000394566
0.0004505
0.000528341
0.000632589
0.000766444
0.000939643
0.00119746
0.00165037
0.00235413
0.0029208
0.00249596
0.00108819
0.000256057
0.000942248
0.00101574
0.000926229
0.000745666
0.000620879
0.000559615
0.00053207
0.000515285
0.000497629
0.000475755
0.000450317
0.000424171
0.00039928
0.000376826
0.000357272
0.000340644
0.000326805
0.000315588
0.000306868
0.000300624
0.000297021
0.000296626
0.000298518
0.000303941
0.00031477
0.000331871
0.000357468
0.000394977
0.000449581
0.000526725
0.000630862
0.000764577
0.000934655
0.00117832
0.00161863
0.00234918
0.00302777
0.00266319
0.00114224
0.000227776
0.000890328
0.000989683
0.000930527
0.000770263
0.000637326
0.000565019
0.000532724
0.000513733
0.00049666
0.000476464
0.000453123
0.000428547
0.000404685
0.000382865
0.000363722
0.000347416
0.000333878
0.000322968
0.000314569
0.000308639
0.000305329
0.000305316
0.000307295
0.000312726
0.000323385
0.000340022
0.000364786
0.00040104
0.00045378
0.000529376
0.000633262
0.000767032
0.000933609
0.00116476
0.00158855
0.00233706
0.0031289
0.00283637
0.00119454
0.000200216
0.000837564
0.000966774
0.000930346
0.000799745
0.000661522
0.000576549
0.000535828
0.000514241
0.000496919
0.000477975
0.00045666
0.000433927
0.00041145
0.000390576
0.00037208
0.000356267
0.000343165
0.000332687
0.000324734
0.00031925
0.000316486
0.000316812
0.000319147
0.000324917
0.000335651
0.000352114
0.000376372
0.000411741
0.000463352
0.000537992
0.000641671
0.000775753
0.000939433
0.00115798
0.00156142
0.00232465
0.00322352
0.00300974
0.00124403
0.000173408
0.000784838
0.000943692
0.000927838
0.000831954
0.00069251
0.000596275
0.000543538
0.00051679
0.000498215
0.000480171
0.00046067
0.000439922
0.000419152
0.000399589
0.000382074
0.000367032
0.000354597
0.000344751
0.000337436
0.000332561
0.000330634
0.000331347
0.000334193
0.000340594
0.000351636
0.000368191
0.000392259
0.000427106
0.000477854
0.000551524
0.000654611
0.000788432
0.000949446
0.00115529
0.00153509
0.00230025
0.00331402
0.003185
0.00129107
0.000146367
0.000726584
0.000922579
0.00092127
0.000862499
0.000731847
0.000625089
0.000559316
0.000523615
0.0005018
0.000483515
0.000465254
0.000446344
0.000427438
0.000409505
0.000393338
0.000379421
0.00036797
0.000359035
0.000352609
0.000348554
0.00034776
0.000348935
0.000352448
0.000359733
0.000371276
0.000388151
0.000412312
0.00044699
0.000497217
0.000570037
0.000672138
0.000804984
0.00096299
0.00115499
0.00151157
0.00226776
0.00339565
0.00335302
0.00133455
0.000122162
0.000672416
0.000899689
0.000913213
0.000879051
0.000777657
0.000664979
0.000586272
0.000538262
0.000510016
0.000489488
0.000471271
0.000453576
0.000436338
0.000420123
0.000405553
0.000393075
0.000382928
0.000375219
0.000369914
0.000367106
0.000367382
0.000369242
0.000373748
0.000381996
0.0003942
0.00041159
0.000436091
0.000470919
0.000520904
0.000592886
0.000693364
0.000824032
0.000978261
0.0011575
0.00148845
0.00222722
0.00346488
0.00351156
0.0013754
0.000101641
0.000612263
0.000883663
0.00090593
0.000886726
0.0008199
0.00071371
0.000626352
0.000566067
0.000527139
0.000501382
0.00048093
0.000463001
0.000446612
0.000431748
0.000418698
0.000407762
0.000399092
0.000392853
0.00038878
0.000387772
0.000388726
0.000391572
0.000397459
0.00040662
0.000419608
0.000437682
0.000462733
0.00049797
0.000547875
0.000618878
0.000716867
0.000843846
0.000993213
0.00116019
0.00146718
0.00218302
0.00351674
0.00364889
0.00141302
8.3252e-05
0.000537538
0.000876558
0.000903857
0.000891909
0.000851435
0.000765903
0.0006796
0.000610612
0.000560697
0.00052551
0.000499499
0.000478681
0.000461218
0.000446405
0.000434052
0.000424166
0.000416723
0.000411748
0.000409111
0.000409466
0.000411248
0.000415329
0.000422408
0.00043252
0.000446357
0.000465241
0.00049098
0.00052677
0.000576533
0.000646161
0.000740536
0.000862106
0.00100538
0.00116151
0.00145017
0.00214309
0.00354988
0.00375358
0.00144935
6.63474e-05
0.000448993
0.000858384
0.00090421
0.000898405
0.000875187
0.00081801
0.000742058
0.000672274
0.000614673
0.000569748
0.00053512
0.000507993
0.000486387
0.000469126
0.000455552
0.000445239
0.000437998
0.00043335
0.000431789
0.000432611
0.000435095
0.000440224
0.000448087
0.000458995
0.000473585
0.000493261
0.000519646
0.000555895
0.000605128
0.000672713
0.000762293
0.000877085
0.00101391
0.00116332
0.00144312
0.00212375
0.0035706
0.00380393
0.00148597
5.74674e-05
0.000375531
0.000813042
0.000899453
0.000901642
0.000894187
0.000868822
0.00081498
0.00075286
0.000694513
0.00064325
0.000599964
0.000564173
0.000535057
0.000511769
0.000493624
0.000479973
0.000470365
0.000464179
0.000461269
0.00046175
0.000463872
0.000468609
0.000476421
0.000487491
0.000502355
0.000522476
0.000549147
0.000585454
0.000633536
0.000698455
0.000782737
0.00089091
0.00102358
0.00117552
0.00145183
0.00211951
0.00359242
0.0038213
0.00151319
5.89611e-05
0.000348077
0.000724496
0.000876883
0.000906708
0.000915433
0.000911112
0.000892478
0.000852129
0.000801217
0.000750172
0.000702261
0.000659246
0.000621912
0.000590474
0.000564751
0.000544385
0.000528874
0.000517735
0.000510438
0.000506745
0.000507136
0.000509533
0.000515162
0.000525127
0.00053937
0.000559328
0.000585868
0.000622003
0.000669014
0.000732028
0.000813311
0.000919237
0.00105661
0.00122885
0.0015317
0.00220211
0.00363656
0.0038026
0.00152267
8.24095e-05
0.000366664
0.000640098
0.000826792
0.000917393
0.000959641
0.000980838
0.00098203
0.000971806
0.000945141
0.00090287
0.00085649
0.000809914
0.000765839
0.000725659
0.000690235
0.000659919
0.000634734
0.00061475
0.000599456
0.000589131
0.000582915
0.000583289
0.000586297
0.000593548
0.000607033
0.000627404
0.000655272
0.000693633
0.000743728
0.000811077
0.000899751
0.00101774
0.00118155
0.00140085
0.00176361
0.00243497
0.00371107
0.00369754
0.00151823
0.000131481
0.000451973
0.000654936
0.00084759
0.000975708
0.00106528
0.00112368
0.00114949
0.00115247
0.00114351
0.0011195
0.00107891
0.00103163
0.000982175
0.000933579
0.000888584
0.000847715
0.000813727
0.00078695
0.000766223
0.000753132
0.000744326
0.000744891
0.000749291
0.000759777
0.000779567
0.000808229
0.000847534
0.00090137
0.000971722
0.0010656
0.00118969
0.00135356
0.0015816
0.00187793
0.00233467
0.00296724
0.00384655
0.00359979
0.00147089
0.000218531
0.000634687
0.000818513
0.00103646
0.0012097
0.0013459
0.00143823
0.00148702
0.00149243
0.00148393
0.00146139
0.00142326
0.00137808
0.00133297
0.00128869
0.00124975
0.00121788
0.00119182
0.00117338
0.0011632
0.0011649
0.00117253
0.00118977
0.00121981
0.00126142
0.00131573
0.00138686
0.00147273
0.00158146
0.00171066
0.00188255
0.00208626
0.00235236
0.00266777
0.00306413
0.00355842
0.00399407
0.00414464
0.00347842
0.00138623
0.000371548
0.00106453
0.00147107
0.00185074
0.00208205
0.0022291
0.00231244
0.00235033
0.00234497
0.00232943
0.00230396
0.00227696
0.00224769
0.0022293
0.00221064
0.00221046
0.0022166
0.00223191
0.00226194
0.00230367
0.00235867
0.00242804
0.00251188
0.00261077
0.00272866
0.00286049
0.00301954
0.00318649
0.00339815
0.00360076
0.00387225
0.00409968
0.00444574
0.00466242
0.00507008
0.00513598
0.00498655
0.00436324
0.0030457
0.00120935
0.000252047
0.000390331
0.000507397
0.000629623
0.000740257
0.000840057
0.000923118
0.000992781
0.0010405
0.00107229
0.00109094
0.00109848
0.00109674
0.0010917
0.00108106
0.00106792
0.00105428
0.00103968
0.00102603
0.00101303
0.00100202
0.000992284
0.000985548
0.000980163
0.000978732
0.000979833
0.000983567
0.000989434
0.00100255
0.00101305
0.00103567
0.00105168
0.00108851
0.00111647
0.00117923
0.00121865
0.00128553
0.00129052
0.00124665
0.00104156
)
;

boundaryField
{
    movingWall
    {
        type            kqRWallFunction;
        value           nonuniform List<scalar> 
40
(
0.000252047
0.000390331
0.000507397
0.000629623
0.000740257
0.000840057
0.000923118
0.000992781
0.0010405
0.00107229
0.00109094
0.00109848
0.00109674
0.0010917
0.00108106
0.00106792
0.00105428
0.00103968
0.00102603
0.00101303
0.00100202
0.000992284
0.000985548
0.000980163
0.000978732
0.000979833
0.000983567
0.000989434
0.00100255
0.00101305
0.00103567
0.00105168
0.00108851
0.00111647
0.00117923
0.00121865
0.00128553
0.00129052
0.00124665
0.00104156
)
;
    }
    fixedWalls
    {
        type            kqRWallFunction;
        value           nonuniform List<scalar> 
120
(
2.0182e-06
9.77824e-06
2.95976e-05
6.8296e-05
0.000129499
0.000217227
0.000328798
0.000448407
0.000551685
0.000627195
0.000681344
0.000710566
0.000709537
0.000700381
0.00067868
0.00064134
0.000598414
0.000547566
0.000497705
0.000439857
0.000393001
0.000353197
0.000317972
0.000285983
0.000256057
0.000227776
0.000200216
0.000173408
0.000146367
0.000122162
0.000101641
8.3252e-05
6.63474e-05
5.74674e-05
5.89611e-05
8.24095e-05
0.000131481
0.000218531
0.000371548
0.000252047
3.36683e-06
5.72462e-06
4.70133e-06
3.30928e-06
3.93366e-06
7.60047e-06
1.7357e-05
4.36523e-05
0.000117841
0.000209711
0.000298895
0.000371135
0.000439014
0.000501863
0.000563394
0.000623227
0.00068275
0.000741886
0.000800661
0.000859438
0.000917527
0.000975479
0.00103224
0.00108819
0.00114224
0.00119454
0.00124403
0.00129107
0.00133455
0.0013754
0.00141302
0.00144935
0.00148597
0.00151319
0.00152267
0.00151823
0.00147089
0.00138623
0.00120935
0.00104156
2.0182e-06
6.96351e-06
1.3588e-05
1.37417e-05
1.26678e-05
1.30022e-05
1.67245e-05
2.81587e-05
4.20256e-05
5.92137e-05
9.26642e-05
0.000117111
0.00012938
0.000143018
0.000164847
0.000193496
0.000220827
0.000251663
0.00028206
0.000316262
0.00035188
0.000392163
0.000436258
0.000487332
0.000547165
0.000600949
0.00065568
0.000702512
0.000743135
0.000765261
0.000774074
0.000758912
0.000696281
0.00058981
0.000441627
0.000259125
0.000124756
5.1837e-05
1.63535e-05
3.36683e-06
)
;
    }
    frontAndBack
    {
        type            empty;
    }
}


// ************************************************************************* //
