/*--------------------------------*- C++ -*----------------------------------*\
  =========                 |
  \\      /  F ield         | OpenFOAM: The Open Source CFD Toolbox
   \\    /   O peration     | Website:  https://openfoam.org
    \\  /    A nd           | Version:  12
     \\/     M anipulation  |
\*---------------------------------------------------------------------------*/
FoamFile
{
    format      ascii;
    class       volScalarField;
    location    "7";
    object      nut;
}
// * * * * * * * * * * * * * * * * * * * * * * * * * * * * * * * * * * * * * //

dimensions      [0 2 -1 0 0 0 0];

internalField   nonuniform List<scalar> 
1600
(
1.41983e-08
4.89824e-08
9.55766e-08
9.66447e-08
8.90856e-08
9.14316e-08
1.17602e-07
1.98014e-07
2.95565e-07
4.16511e-07
6.51819e-07
8.23744e-07
9.10022e-07
1.00597e-06
1.15954e-06
1.36108e-06
1.55331e-06
1.77021e-06
1.98399e-06
2.22455e-06
2.47506e-06
2.75839e-06
3.06851e-06
3.42772e-06
3.84854e-06
4.22674e-06
4.61164e-06
4.94094e-06
5.22661e-06
5.38219e-06
5.44416e-06
5.33752e-06
4.89709e-06
4.14835e-06
3.1062e-06
1.8227e-06
8.77602e-07
3.64676e-07
1.15054e-07
2.36884e-08
6.8789e-08
1.16567e-06
3.49014e-06
4.23569e-06
4.16819e-06
4.00052e-06
4.5235e-06
6.09962e-06
6.61288e-06
7.33356e-06
8.8852e-06
9.82692e-06
1.03036e-05
1.10586e-05
1.18659e-05
1.33248e-05
1.44136e-05
1.59949e-05
1.7296e-05
1.87388e-05
2.00233e-05
2.13374e-05
2.25831e-05
2.36093e-05
2.42458e-05
2.50332e-05
2.56021e-05
2.60837e-05
2.62439e-05
2.58825e-05
2.56141e-05
2.4336e-05
2.24522e-05
1.92485e-05
1.59504e-05
1.02482e-05
4.90582e-06
1.93607e-06
6.54648e-07
4.02733e-08
2.08211e-07
3.16252e-06
7.74763e-06
9.37039e-06
9.93736e-06
1.03666e-05
1.28832e-05
1.64997e-05
1.74942e-05
1.77696e-05
1.62968e-05
1.54169e-05
1.50269e-05
1.63251e-05
1.77993e-05
1.94946e-05
2.13973e-05
2.3323e-05
2.51025e-05
2.69028e-05
2.85296e-05
2.97965e-05
3.05638e-05
3.11113e-05
3.14671e-05
3.16684e-05
3.16316e-05
3.13563e-05
3.07608e-05
2.97397e-05
2.78515e-05
2.59214e-05
2.4312e-05
2.0479e-05
1.68792e-05
1.0064e-05
4.26875e-06
2.07326e-06
8.4512e-07
3.30731e-08
4.80418e-07
6.89617e-06
1.34191e-05
1.56678e-05
1.67865e-05
1.86465e-05
2.1087e-05
2.14498e-05
2.10656e-05
1.82491e-05
1.72808e-05
1.86135e-05
2.03855e-05
2.31483e-05
2.50343e-05
2.74731e-05
2.93786e-05
3.10823e-05
3.24396e-05
3.36606e-05
3.44198e-05
3.51029e-05
3.54648e-05
3.56959e-05
3.56965e-05
3.55117e-05
3.50868e-05
3.44127e-05
3.34253e-05
3.20137e-05
3.00831e-05
2.76406e-05
2.46935e-05
2.12055e-05
1.82355e-05
1.38094e-05
4.99086e-06
1.66854e-06
5.85931e-07
2.32779e-08
9.10897e-07
1.2457e-05
1.99621e-05
2.14119e-05
2.23329e-05
2.42128e-05
2.4296e-05
2.36709e-05
2.0927e-05
1.95959e-05
2.15937e-05
2.37008e-05
2.65017e-05
2.91822e-05
3.10868e-05
3.30889e-05
3.47938e-05
3.62658e-05
3.7508e-05
3.83324e-05
3.89772e-05
3.93982e-05
3.96192e-05
3.96778e-05
3.9579e-05
3.93251e-05
3.88684e-05
3.81373e-05
3.70255e-05
3.5358e-05
3.31372e-05
3.05508e-05
2.77829e-05
2.42159e-05
1.97554e-05
1.61217e-05
1.01186e-05
2.71428e-06
6.14836e-07
2.7667e-08
1.52792e-06
1.85269e-05
2.56582e-05
2.61703e-05
2.6702e-05
2.63449e-05
2.56383e-05
2.32013e-05
2.13865e-05
2.35233e-05
2.59874e-05
2.88426e-05
3.1717e-05
3.36451e-05
3.56224e-05
3.73821e-05
3.90409e-05
4.01008e-05
4.11109e-05
4.1797e-05
4.23522e-05
4.26655e-05
4.28153e-05
4.27714e-05
4.26276e-05
4.23557e-05
4.19686e-05
4.14319e-05
4.06868e-05
3.97476e-05
3.74314e-05
3.4228e-05
3.10293e-05
2.73802e-05
2.29909e-05
1.81422e-05
1.30132e-05
4.37284e-06
9.72525e-07
5.34527e-08
2.31262e-06
2.3222e-05
3.01488e-05
2.95012e-05
2.82587e-05
2.74823e-05
2.51992e-05
2.28059e-05
2.47618e-05
2.75775e-05
3.04171e-05
3.33126e-05
3.52599e-05
3.73646e-05
3.9228e-05
4.08429e-05
4.22248e-05
4.32859e-05
4.41708e-05
4.46734e-05
4.49903e-05
4.50892e-05
4.51404e-05
4.5108e-05
4.49793e-05
4.47707e-05
4.44817e-05
4.40924e-05
4.35505e-05
4.27531e-05
4.18375e-05
3.99476e-05
3.65492e-05
3.29065e-05
2.7961e-05
2.15875e-05
1.54427e-05
8.12298e-06
1.58026e-06
1.22065e-07
3.15385e-06
2.73408e-05
3.29877e-05
3.12792e-05
3.00446e-05
2.71728e-05
2.44845e-05
2.54901e-05
2.83691e-05
3.14069e-05
3.42106e-05
3.63584e-05
3.85462e-05
4.06273e-05
4.23342e-05
4.38849e-05
4.49585e-05
4.57097e-05
4.61871e-05
4.64194e-05
4.68119e-05
4.69492e-05
4.70475e-05
4.7024e-05
4.69139e-05
4.67266e-05
4.64781e-05
4.61778e-05
4.58106e-05
4.53062e-05
4.44981e-05
4.32261e-05
4.08387e-05
3.72223e-05
3.37835e-05
2.7697e-05
1.91554e-05
1.03129e-05
2.12285e-06
3.06987e-07
3.88025e-06
3.0076e-05
3.51059e-05
3.34177e-05
2.98679e-05
2.65936e-05
2.57479e-05
2.85488e-05
3.17845e-05
3.46979e-05
3.7081e-05
3.92264e-05
4.14646e-05
4.31373e-05
4.45952e-05
4.58107e-05
4.6495e-05
4.72184e-05
4.77529e-05
4.82187e-05
4.84626e-05
4.89241e-05
4.90052e-05
4.90397e-05
4.89121e-05
4.867e-05
4.83292e-05
4.79322e-05
4.75234e-05
4.7121e-05
4.66591e-05
4.59001e-05
4.40606e-05
4.05899e-05
3.67318e-05
3.28458e-05
2.49038e-05
1.45666e-05
4.61557e-06
8.28741e-07
4.41134e-06
3.16672e-05
3.67832e-05
3.37088e-05
2.94699e-05
2.64549e-05
2.82987e-05
3.15678e-05
3.47521e-05
3.7368e-05
3.94042e-05
4.1535e-05
4.33576e-05
4.4946e-05
4.61434e-05
4.71482e-05
4.79436e-05
4.87802e-05
4.94931e-05
5.02264e-05
5.06635e-05
5.10861e-05
5.14493e-05
5.14883e-05
5.1382e-05
5.10574e-05
5.05597e-05
4.99253e-05
4.92364e-05
4.85901e-05
4.8061e-05
4.7611e-05
4.69615e-05
4.41007e-05
3.9603e-05
3.61291e-05
2.93391e-05
1.80139e-05
6.13296e-06
1.47482e-06
4.79221e-06
3.28352e-05
3.82799e-05
3.38412e-05
2.8973e-05
2.81463e-05
3.08768e-05
3.42099e-05
3.71193e-05
3.93254e-05
4.12629e-05
4.3263e-05
4.49007e-05
4.62818e-05
4.74195e-05
4.84923e-05
4.9519e-05
5.05737e-05
5.15476e-05
5.25659e-05
5.32019e-05
5.36354e-05
5.42763e-05
5.43525e-05
5.42909e-05
5.39294e-05
5.33119e-05
5.24513e-05
5.14225e-05
5.03509e-05
4.93934e-05
4.86547e-05
4.80403e-05
4.70668e-05
4.29489e-05
3.9294e-05
3.42012e-05
2.2824e-05
8.75342e-06
2.10196e-06
4.99776e-06
3.31379e-05
3.8745e-05
3.39803e-05
2.90879e-05
3.01035e-05
3.32016e-05
3.63555e-05
3.88519e-05
4.07597e-05
4.27424e-05
4.45832e-05
4.60877e-05
4.74284e-05
4.86831e-05
4.9972e-05
5.12835e-05
5.26013e-05
5.38358e-05
5.5096e-05
5.59016e-05
5.6363e-05
5.7188e-05
5.73229e-05
5.73109e-05
5.69725e-05
5.63249e-05
5.53489e-05
5.40795e-05
5.26298e-05
5.121e-05
5.00763e-05
4.93743e-05
4.88988e-05
4.55991e-05
4.12054e-05
3.7347e-05
2.6434e-05
1.10338e-05
2.60993e-06
4.99053e-06
3.30751e-05
3.90551e-05
3.38035e-05
3.00913e-05
3.19341e-05
3.50947e-05
3.79499e-05
4.00417e-05
4.19479e-05
4.38981e-05
4.56136e-05
4.71018e-05
4.85431e-05
5.00206e-05
5.15848e-05
5.31841e-05
5.47527e-05
5.62011e-05
5.76103e-05
5.85093e-05
5.90151e-05
5.98872e-05
6.00608e-05
6.00781e-05
5.97951e-05
5.92012e-05
5.82416e-05
5.68829e-05
5.51632e-05
5.32566e-05
5.14859e-05
5.01931e-05
4.94236e-05
4.80625e-05
4.32928e-05
4.02623e-05
3.04115e-05
1.36008e-05
3.08722e-06
4.92614e-06
3.27925e-05
3.93093e-05
3.37562e-05
3.13166e-05
3.34661e-05
3.65271e-05
3.91134e-05
4.09768e-05
4.29077e-05
4.48028e-05
4.64739e-05
4.80458e-05
4.9674e-05
5.14157e-05
5.32577e-05
5.51139e-05
5.68884e-05
5.84859e-05
5.99539e-05
6.0885e-05
6.13977e-05
6.22048e-05
6.23615e-05
6.23642e-05
6.21309e-05
6.16428e-05
6.08228e-05
5.95721e-05
5.78281e-05
5.56675e-05
5.34072e-05
5.15781e-05
5.06376e-05
5.04306e-05
4.58104e-05
4.19736e-05
3.346e-05
1.59508e-05
3.52914e-06
4.77353e-06
3.2175e-05
3.90941e-05
3.39408e-05
3.23559e-05
3.46694e-05
3.75873e-05
3.99096e-05
4.17306e-05
4.3673e-05
4.55328e-05
4.72347e-05
4.89514e-05
5.08014e-05
5.28043e-05
5.48973e-05
5.69684e-05
5.89028e-05
6.06e-05
6.20422e-05
6.29616e-05
6.34453e-05
6.41028e-05
6.41756e-05
6.41029e-05
6.38752e-05
6.34879e-05
6.2863e-05
6.18535e-05
6.0288e-05
5.80816e-05
5.54027e-05
5.27814e-05
5.093e-05
5.02218e-05
4.77995e-05
4.36094e-05
3.6409e-05
1.82644e-05
3.96178e-06
4.51091e-06
3.13306e-05
3.86509e-05
3.42134e-05
3.31693e-05
3.55509e-05
3.83412e-05
4.0507e-05
4.23366e-05
4.42825e-05
4.61393e-05
4.79202e-05
4.98042e-05
5.18731e-05
5.41096e-05
5.6416e-05
5.86621e-05
6.072e-05
6.24819e-05
6.38728e-05
6.47392e-05
6.51663e-05
6.56236e-05
6.55559e-05
6.53472e-05
6.50603e-05
6.47254e-05
6.42869e-05
6.35833e-05
6.23686e-05
6.04103e-05
5.76942e-05
5.46629e-05
5.21639e-05
5.07712e-05
4.925e-05
4.46936e-05
3.86639e-05
2.04672e-05
4.38247e-06
4.209e-06
3.03145e-05
3.80363e-05
3.4476e-05
3.37705e-05
3.61664e-05
3.88707e-05
4.09647e-05
4.28187e-05
4.47667e-05
4.66452e-05
4.8524e-05
5.05678e-05
5.28282e-05
5.52584e-05
5.77388e-05
6.01257e-05
6.22803e-05
6.40845e-05
6.54518e-05
6.62329e-05
6.65841e-05
6.68239e-05
6.65833e-05
6.61968e-05
6.57912e-05
6.54433e-05
6.51391e-05
6.47301e-05
6.39247e-05
6.23501e-05
5.9755e-05
5.6382e-05
5.32092e-05
5.13998e-05
5.0741e-05
4.58642e-05
4.05529e-05
2.25701e-05
4.80099e-06
3.85138e-06
2.92836e-05
3.73023e-05
3.46693e-05
3.4181e-05
3.65548e-05
3.92329e-05
4.131e-05
4.31908e-05
4.51416e-05
4.70534e-05
4.9023e-05
5.11975e-05
5.36078e-05
5.61864e-05
5.88009e-05
6.12986e-05
6.35316e-05
6.53723e-05
6.67272e-05
6.74292e-05
6.76973e-05
6.77298e-05
6.73113e-05
6.67329e-05
6.617e-05
6.57489e-05
6.55128e-05
6.53529e-05
6.49764e-05
6.39251e-05
6.1724e-05
5.82997e-05
5.4486e-05
5.18658e-05
5.11871e-05
4.69675e-05
4.2058e-05
2.46109e-05
5.21677e-06
3.50069e-06
2.8123e-05
3.64759e-05
3.47845e-05
3.44391e-05
3.67892e-05
3.94412e-05
4.15486e-05
4.34628e-05
4.5414e-05
4.7352e-05
4.93909e-05
5.16578e-05
5.41671e-05
5.6842e-05
5.95459e-05
6.21211e-05
6.44118e-05
6.6281e-05
6.76277e-05
6.82799e-05
6.84676e-05
6.83274e-05
6.77489e-05
6.69939e-05
6.62669e-05
6.57334e-05
6.55055e-05
6.55278e-05
6.55342e-05
6.50297e-05
6.33576e-05
6.01149e-05
5.58574e-05
5.23972e-05
5.12995e-05
4.8199e-05
4.33293e-05
2.64841e-05
5.63001e-06
3.09381e-06
2.71862e-05
3.55774e-05
3.47764e-05
3.45815e-05
3.68159e-05
3.9545e-05
4.16904e-05
4.36276e-05
4.55756e-05
4.75342e-05
4.9604e-05
5.19008e-05
5.44481e-05
5.71679e-05
5.99188e-05
6.25356e-05
6.48551e-05
6.67337e-05
6.80665e-05
6.87106e-05
6.88208e-05
6.85563e-05
6.78601e-05
6.69786e-05
6.61155e-05
6.54555e-05
6.51996e-05
6.53491e-05
6.56826e-05
6.57205e-05
6.46769e-05
6.18367e-05
5.73419e-05
5.30121e-05
5.10388e-05
4.91672e-05
4.44496e-05
2.83135e-05
6.04326e-06
2.76423e-06
2.58562e-05
3.46773e-05
3.471e-05
3.45991e-05
3.68271e-05
3.94417e-05
4.17101e-05
4.36946e-05
4.56346e-05
4.75677e-05
4.96387e-05
5.19609e-05
5.45161e-05
5.72196e-05
5.9939e-05
6.25186e-05
6.48012e-05
6.66472e-05
6.79485e-05
6.86227e-05
6.87046e-05
6.82611e-05
6.74516e-05
6.64294e-05
6.54429e-05
6.47952e-05
6.4653e-05
6.48944e-05
6.54923e-05
6.60296e-05
6.56343e-05
6.33447e-05
5.88532e-05
5.38511e-05
5.11142e-05
4.98451e-05
4.54842e-05
2.99534e-05
6.45168e-06
2.48426e-06
2.43645e-05
3.32802e-05
3.4719e-05
3.45688e-05
3.64793e-05
3.9371e-05
4.16142e-05
4.36209e-05
4.55445e-05
4.75015e-05
4.95184e-05
5.16516e-05
5.40147e-05
5.65661e-05
5.91821e-05
6.16999e-05
6.39633e-05
6.58313e-05
6.71892e-05
6.79584e-05
6.81254e-05
6.77355e-05
6.70041e-05
6.58747e-05
6.47783e-05
6.40006e-05
6.36811e-05
6.4028e-05
6.50261e-05
6.60337e-05
6.62687e-05
6.46105e-05
6.02776e-05
5.46885e-05
5.12462e-05
5.02019e-05
4.64301e-05
3.15522e-05
6.85912e-06
2.23649e-06
2.2743e-05
3.17329e-05
3.46658e-05
3.45106e-05
3.62906e-05
3.8786e-05
4.14067e-05
4.34641e-05
4.5393e-05
4.71686e-05
4.90475e-05
5.12251e-05
5.35998e-05
5.61029e-05
5.86283e-05
6.10554e-05
6.32364e-05
6.50317e-05
6.63253e-05
6.70361e-05
6.71348e-05
6.67233e-05
6.61248e-05
6.52001e-05
6.42659e-05
6.34726e-05
6.29653e-05
6.3235e-05
6.42465e-05
6.56167e-05
6.6547e-05
6.56712e-05
6.15827e-05
5.55502e-05
5.1483e-05
5.03901e-05
4.72513e-05
3.30582e-05
7.2582e-06
2.01147e-06
2.10426e-05
2.99257e-05
3.44666e-05
3.44618e-05
3.59838e-05
3.85145e-05
4.08837e-05
4.30958e-05
4.49554e-05
4.67836e-05
4.87078e-05
5.07289e-05
5.29233e-05
5.52346e-05
5.75743e-05
5.98241e-05
6.18517e-05
6.35308e-05
6.47601e-05
6.5474e-05
6.56398e-05
6.52867e-05
6.47825e-05
6.39309e-05
6.30374e-05
6.23723e-05
6.22548e-05
6.27328e-05
6.37152e-05
6.52768e-05
6.66578e-05
6.63767e-05
6.28158e-05
5.62751e-05
5.16227e-05
5.04832e-05
4.7976e-05
3.45246e-05
7.65156e-06
1.80097e-06
1.92916e-05
2.81306e-05
3.40617e-05
3.41986e-05
3.54831e-05
3.80312e-05
4.03779e-05
4.25288e-05
4.44882e-05
4.63528e-05
4.80816e-05
4.98816e-05
5.18205e-05
5.38912e-05
5.60165e-05
5.80834e-05
5.99721e-05
6.15663e-05
6.27674e-05
6.35116e-05
6.37656e-05
6.35235e-05
6.31328e-05
6.24458e-05
6.16967e-05
6.11261e-05
6.09782e-05
6.15226e-05
6.30016e-05
6.50121e-05
6.66651e-05
6.67311e-05
6.37464e-05
5.68864e-05
5.16786e-05
5.05227e-05
4.86355e-05
3.59042e-05
8.03155e-06
1.60204e-06
1.75324e-05
2.63937e-05
3.31034e-05
3.43084e-05
3.50878e-05
3.72961e-05
3.9872e-05
4.19686e-05
4.39173e-05
4.56512e-05
4.73039e-05
4.89561e-05
5.06812e-05
5.24991e-05
5.43671e-05
5.62002e-05
5.78977e-05
5.93594e-05
6.04999e-05
6.12642e-05
6.16218e-05
6.15348e-05
6.12703e-05
6.0804e-05
6.02706e-05
5.98935e-05
5.99053e-05
6.05614e-05
6.20382e-05
6.42401e-05
6.64413e-05
6.71888e-05
6.42606e-05
5.73836e-05
5.1551e-05
5.02763e-05
4.92245e-05
3.72309e-05
8.39926e-06
1.40818e-06
1.57559e-05
2.46583e-05
3.14994e-05
3.42646e-05
3.48009e-05
3.65222e-05
3.90849e-05
4.13663e-05
4.32485e-05
4.48768e-05
4.64223e-05
4.79231e-05
4.94436e-05
5.10157e-05
5.26242e-05
5.4214e-05
5.57086e-05
5.7027e-05
5.80971e-05
5.88708e-05
5.93617e-05
5.9384e-05
5.92988e-05
5.90975e-05
5.88096e-05
5.86634e-05
5.88679e-05
5.9674e-05
6.12923e-05
6.36717e-05
6.60876e-05
6.71939e-05
6.50817e-05
5.76592e-05
5.13074e-05
4.99398e-05
4.96819e-05
3.84242e-05
8.7472e-06
1.21961e-06
1.40185e-05
2.28232e-05
2.97308e-05
3.40748e-05
3.45139e-05
3.58425e-05
3.803e-05
4.04379e-05
4.23996e-05
4.40103e-05
4.54607e-05
4.68231e-05
4.81586e-05
4.9507e-05
5.08735e-05
5.223e-05
5.35256e-05
5.47004e-05
5.56969e-05
5.6468e-05
5.71041e-05
5.72229e-05
5.73178e-05
5.73988e-05
5.73727e-05
5.74779e-05
5.78961e-05
5.88621e-05
6.05785e-05
6.30525e-05
6.56052e-05
6.69014e-05
6.51397e-05
5.77148e-05
5.0912e-05
4.9352e-05
5.00801e-05
3.95662e-05
9.07788e-06
1.02939e-06
1.22993e-05
2.13632e-05
2.74536e-05
3.34017e-05
3.44162e-05
3.53048e-05
3.70721e-05
3.93097e-05
4.13714e-05
4.30238e-05
4.44212e-05
4.56728e-05
4.68543e-05
4.80145e-05
4.91745e-05
5.03274e-05
5.1445e-05
5.24894e-05
5.34153e-05
5.41826e-05
5.49507e-05
5.51569e-05
5.54251e-05
5.57819e-05
5.60108e-05
5.63669e-05
5.69998e-05
5.81249e-05
5.99092e-05
6.23951e-05
6.49244e-05
6.62297e-05
6.4689e-05
5.74031e-05
5.02449e-05
4.84437e-05
5.03521e-05
4.05363e-05
9.38357e-06
8.59137e-07
1.08643e-05
2.01009e-05
2.52046e-05
3.15329e-05
3.43366e-05
3.49912e-05
3.63025e-05
3.81423e-05
4.01861e-05
4.19163e-05
4.33242e-05
4.45153e-05
4.55837e-05
4.65953e-05
4.75874e-05
4.85723e-05
4.95391e-05
5.04756e-05
5.13245e-05
5.2147e-05
5.29201e-05
5.32444e-05
5.3721e-05
5.42846e-05
5.47433e-05
5.53289e-05
5.61531e-05
5.74132e-05
5.92077e-05
6.16008e-05
6.39275e-05
6.50532e-05
6.34145e-05
5.64174e-05
4.91139e-05
4.7247e-05
5.05099e-05
4.14068e-05
9.67079e-06
7.14798e-07
9.6278e-06
1.92329e-05
2.33033e-05
2.92945e-05
3.37045e-05
3.47979e-05
3.58202e-05
3.72735e-05
3.8969e-05
4.07033e-05
4.2122e-05
4.32956e-05
4.43047e-05
4.52233e-05
4.61014e-05
4.69684e-05
4.78211e-05
4.86875e-05
4.94438e-05
5.04196e-05
5.1019e-05
5.15019e-05
5.22251e-05
5.29027e-05
5.35449e-05
5.43158e-05
5.52761e-05
5.66149e-05
5.83216e-05
6.04904e-05
6.23967e-05
6.31629e-05
6.12601e-05
5.47231e-05
4.77827e-05
4.57985e-05
5.04036e-05
4.20457e-05
9.93524e-06
5.85461e-07
8.61835e-06
1.86738e-05
2.19211e-05
2.71573e-05
3.21805e-05
3.43356e-05
3.55451e-05
3.67916e-05
3.82164e-05
3.96986e-05
4.10587e-05
4.22002e-05
4.31624e-05
4.401e-05
4.47976e-05
4.55703e-05
4.63294e-05
4.71231e-05
4.78482e-05
4.88521e-05
4.93109e-05
4.99744e-05
5.08323e-05
5.15705e-05
5.23254e-05
5.32081e-05
5.42047e-05
5.55189e-05
5.69792e-05
5.87591e-05
6.00003e-05
6.02545e-05
5.79356e-05
5.19813e-05
4.58623e-05
4.42897e-05
5.00636e-05
4.2307e-05
1.01907e-05
4.6656e-07
7.88944e-06
1.82194e-05
2.14545e-05
2.55004e-05
3.04078e-05
3.3653e-05
3.52192e-05
3.64755e-05
3.77032e-05
3.89489e-05
4.01342e-05
4.1183e-05
4.20827e-05
4.28765e-05
4.36064e-05
4.43117e-05
4.50181e-05
4.57195e-05
4.64941e-05
4.73392e-05
4.78203e-05
4.85643e-05
4.93932e-05
5.01525e-05
5.09021e-05
5.17716e-05
5.26354e-05
5.37563e-05
5.47385e-05
5.59427e-05
5.6289e-05
5.59686e-05
5.32448e-05
4.81935e-05
4.34777e-05
4.31239e-05
4.94225e-05
4.18608e-05
1.04482e-05
4.04113e-07
7.76848e-06
1.75697e-05
2.15929e-05
2.39317e-05
2.85545e-05
3.27619e-05
3.5182e-05
3.66803e-05
3.79257e-05
3.90428e-05
4.00578e-05
4.09463e-05
4.17211e-05
4.23705e-05
4.29661e-05
4.35368e-05
4.41061e-05
4.46941e-05
4.52809e-05
4.60743e-05
4.64448e-05
4.70283e-05
4.77217e-05
4.83464e-05
4.88948e-05
4.95495e-05
5.00266e-05
5.07216e-05
5.09573e-05
5.14387e-05
5.07948e-05
5.00317e-05
4.71859e-05
4.35484e-05
4.02579e-05
4.13036e-05
4.85739e-05
4.13444e-05
1.06395e-05
4.14636e-07
8.57927e-06
1.68752e-05
2.16803e-05
2.40407e-05
2.72294e-05
3.11376e-05
3.46633e-05
3.69126e-05
3.82868e-05
3.93574e-05
4.02262e-05
4.09476e-05
4.1539e-05
4.20728e-05
4.25385e-05
4.30013e-05
4.33805e-05
4.37548e-05
4.40309e-05
4.4448e-05
4.47137e-05
4.48875e-05
4.5161e-05
4.54548e-05
4.55501e-05
4.57314e-05
4.55564e-05
4.56144e-05
4.49834e-05
4.47973e-05
4.34472e-05
4.26857e-05
4.03823e-05
3.87556e-05
3.76575e-05
4.03857e-05
4.757e-05
4.05906e-05
1.07061e-05
5.79573e-07
1.08278e-05
1.74104e-05
2.21777e-05
2.49207e-05
2.79463e-05
3.12534e-05
3.45224e-05
3.76355e-05
4.00096e-05
4.13518e-05
4.22911e-05
4.29462e-05
4.34098e-05
4.35501e-05
4.34758e-05
4.32691e-05
4.29807e-05
4.26801e-05
4.22767e-05
4.19958e-05
4.14272e-05
4.12387e-05
4.09277e-05
4.04568e-05
3.99514e-05
3.95097e-05
3.87111e-05
3.82187e-05
3.71518e-05
3.67833e-05
3.56072e-05
3.55527e-05
3.46495e-05
3.5294e-05
3.65413e-05
4.05577e-05
4.60512e-05
3.83986e-05
1.06747e-05
9.24744e-07
1.43281e-05
1.96446e-05
2.36171e-05
2.67701e-05
2.9954e-05
3.33733e-05
3.59993e-05
3.85706e-05
4.10468e-05
4.29363e-05
4.37968e-05
4.40591e-05
4.38612e-05
4.33294e-05
4.25529e-05
4.15141e-05
4.04944e-05
3.94722e-05
3.85004e-05
3.74838e-05
3.63737e-05
3.57197e-05
3.47372e-05
3.37326e-05
3.28788e-05
3.22548e-05
3.16065e-05
3.12713e-05
3.08371e-05
3.10882e-05
3.10789e-05
3.22151e-05
3.302e-05
3.55048e-05
3.80199e-05
4.28542e-05
4.3952e-05
3.65521e-05
1.03415e-05
1.53702e-06
1.85517e-05
2.19068e-05
2.60173e-05
2.9566e-05
3.27047e-05
3.56428e-05
3.78762e-05
3.88961e-05
4.01095e-05
4.09886e-05
4.11507e-05
4.08472e-05
4.02942e-05
3.94407e-05
3.84727e-05
3.74786e-05
3.63242e-05
3.50955e-05
3.40608e-05
3.32324e-05
3.22727e-05
3.14352e-05
3.09258e-05
3.04926e-05
3.0342e-05
3.03391e-05
3.06102e-05
3.11641e-05
3.19144e-05
3.30948e-05
3.42444e-05
3.63116e-05
3.80126e-05
4.11632e-05
4.34169e-05
4.58582e-05
4.23718e-05
3.31252e-05
9.74542e-06
2.613e-06
2.20906e-05
2.47348e-05
2.91421e-05
3.22684e-05
3.45875e-05
3.63176e-05
3.75869e-05
3.78278e-05
3.82003e-05
3.83824e-05
3.84372e-05
3.82e-05
3.8091e-05
3.74984e-05
3.73007e-05
3.70072e-05
3.66116e-05
3.63183e-05
3.6116e-05
3.60041e-05
3.60919e-05
3.6205e-05
3.65573e-05
3.69313e-05
3.75619e-05
3.82169e-05
3.91004e-05
4.00988e-05
4.11648e-05
4.25811e-05
4.36865e-05
4.56663e-05
4.6293e-05
4.88452e-05
4.76836e-05
4.606e-05
4.0088e-05
2.50705e-05
8.5015e-06
1.77258e-06
2.74501e-06
3.56819e-06
4.42755e-06
5.20545e-06
5.90714e-06
6.49123e-06
6.98101e-06
7.31652e-06
7.54e-06
7.67114e-06
7.7241e-06
7.71186e-06
7.6764e-06
7.60146e-06
7.50906e-06
7.41306e-06
7.31035e-06
7.21432e-06
7.12285e-06
7.04535e-06
6.97688e-06
6.92942e-06
6.89155e-06
6.88139e-06
6.88911e-06
6.91531e-06
6.95643e-06
7.04875e-06
7.12264e-06
7.28104e-06
7.39445e-06
7.65276e-06
7.84933e-06
8.29111e-06
8.56796e-06
9.03865e-06
9.07326e-06
8.76511e-06
7.3234e-06
)
;

boundaryField
{
    movingWall
    {
        type            nutkWallFunction;
        Cmu             0.09;
        kappa           0.41;
        E               9.8;
        value           uniform 0;
    }
    fixedWalls
    {
        type            nutkWallFunction;
        Cmu             0.09;
        kappa           0.41;
        E               9.8;
        value           uniform 0;
    }
    frontAndBack
    {
        type            empty;
    }
}


// ************************************************************************* //
