/*--------------------------------*- C++ -*----------------------------------*\
  =========                 |
  \\      /  F ield         | OpenFOAM: The Open Source CFD Toolbox
   \\    /   O peration     | Website:  https://openfoam.org
    \\  /    A nd           | Version:  12
     \\/     M anipulation  |
\*---------------------------------------------------------------------------*/
FoamFile
{
    format      ascii;
    class       volScalarField;
    location    "7";
    object      p;
}
// * * * * * * * * * * * * * * * * * * * * * * * * * * * * * * * * * * * * * //

dimensions      [0 2 -2 0 0 0 0];

internalField   nonuniform List<scalar> 
1600
(
1.0678e-08
-2.2802e-05
-0.000105363
-0.000222607
-0.00033026
-0.000414475
-0.000491361
-0.000593641
-0.000730844
-0.000903227
-0.00111975
-0.00143663
-0.00184628
-0.00205327
-0.0022661
-0.00280007
-0.00362313
-0.00457685
-0.00549987
-0.00625723
-0.00675187
-0.00691563
-0.00669442
-0.00604158
-0.00498151
-0.00353209
-0.00170027
0.000454426
0.0028184
0.00517731
0.00725086
0.00872496
0.00937495
0.00917043
0.00818949
0.00716873
0.00652893
0.00641938
0.00651762
0.00656357
-1.68171e-05
-6.41574e-05
-0.000155995
-0.000269302
-0.000349779
-0.000392817
-0.000432695
-0.000510446
-0.000633525
-0.000780311
-0.000918239
-0.00113085
-0.00153615
-0.00206488
-0.00266797
-0.00342143
-0.00431922
-0.00527577
-0.00617193
-0.00689756
-0.00736873
-0.00752726
-0.00732942
-0.00675247
-0.00578224
-0.00440544
-0.00265321
-0.000579412
0.00169755
0.00400508
0.00609328
0.00765925
0.00845805
0.00840774
0.00762701
0.00663304
0.00613008
0.00619875
0.00637095
0.00645303
-4.04577e-05
-0.000131603
-0.000251215
-0.000359551
-0.000404805
-0.00039552
-0.000387349
-0.000410501
-0.000489442
-0.000687115
-0.00103479
-0.00150182
-0.00211003
-0.00286362
-0.00374337
-0.0047014
-0.00568338
-0.00662607
-0.0074595
-0.00811744
-0.00854163
-0.00867815
-0.00849374
-0.00796932
-0.00708069
-0.00582184
-0.00421557
-0.00230822
-0.00018399
0.00202676
0.00411661
0.00584018
0.00695095
0.00729812
0.0069637
0.00633981
0.00601881
0.00607472
0.00623846
0.00629268
-4.37113e-05
-0.000179386
-0.000338701
-0.00043506
-0.00044052
-0.000398944
-0.000382477
-0.000437622
-0.000616079
-0.00100156
-0.00162886
-0.00243716
-0.00335158
-0.00434083
-0.00538256
-0.00642888
-0.00742858
-0.00833784
-0.00911452
-0.00971637
-0.0100954
-0.0102053
-0.0100234
-0.00953619
-0.00873058
-0.00760518
-0.0061756
-0.00447393
-0.00255599
-0.000505879
0.00153562
0.00338837
0.00483856
0.00572502
0.00606791
0.00606073
0.00607267
0.00610794
0.00618101
0.00617895
8.44379e-05
-0.000115356
-0.000295033
-0.000390586
-0.000407097
-0.000402142
-0.000461415
-0.000671104
-0.00110612
-0.00180844
-0.00274924
-0.00383743
-0.00498495
-0.00613989
-0.00726726
-0.00834144
-0.00933642
-0.0102263
-0.010965
-0.0115108
-0.0118306
-0.0119111
-0.0117373
-0.0112948
-0.0105764
-0.00958428
-0.00832668
-0.00682215
-0.00510672
-0.0032424
-0.0013168
0.000558509
0.0022588
0.00367189
0.00474433
0.00549373
0.00598507
0.00621791
0.00617444
0.00610391
0.000414621
0.000140262
-6.38852e-05
-0.00019774
-0.000290585
-0.000419861
-0.000689687
-0.00119445
-0.001979
-0.00301704
-0.00422676
-0.00551303
-0.00680564
-0.00805448
-0.00923384
-0.0103244
-0.0112966
-0.0121226
-0.0127768
-0.0132465
-0.0135156
-0.0135736
-0.0134113
-0.0130172
-0.0123879
-0.0115256
-0.0104355
-0.00912761
-0.0076202
-0.00594512
-0.00415065
-0.00230283
-0.000473169
0.00129573
0.0029578
0.00441356
0.00549746
0.00611706
0.00610881
0.00598943
0.000922569
0.000596251
0.000334907
0.000111228
-0.00013942
-0.000516494
-0.00111825
-0.00200009
-0.00314259
-0.00446968
-0.00588199
-0.00730201
-0.00867555
-0.00996328
-0.011142
-0.0121928
-0.0131014
-0.0138532
-0.0144373
-0.0148473
-0.0150749
-0.0151141
-0.0149596
-0.0146048
-0.0140493
-0.0132951
-0.0123463
-0.0112091
-0.00989219
-0.00840842
-0.00677578
-0.00501697
-0.00315071
-0.00118716
0.000843143
0.0028335
0.00452607
0.00563952
0.00603905
0.00581471
0.00153691
0.00116703
0.000801653
0.000432001
-5.67767e-05
-0.000768396
-0.00176094
-0.00302056
-0.00447424
-0.00602001
-0.00757065
-0.00906703
-0.0104668
-0.0117433
-0.0128824
-0.0138747
-0.0147161
-0.0154015
-0.0159271
-0.0162895
-0.0164848
-0.0165102
-0.0163628
-0.0160409
-0.0155445
-0.0148762
-0.0140392
-0.0130377
-0.0118755
-0.0105552
-0.00907766
-0.00743946
-0.00562714
-0.00361657
-0.00140265
0.000925317
0.00311484
0.00481961
0.00576839
0.00545185
0.00209033
0.00164792
0.00117042
0.000619997
-0.000156906
-0.00123432
-0.00260033
-0.00418402
-0.00587223
-0.00756648
-0.00919764
-0.0107217
-0.0121097
-0.0133488
-0.0144345
-0.0153664
-0.0161462
-0.0167745
-0.0172513
-0.017576
-0.0177476
-0.0177648
-0.0176265
-0.0173328
-0.0168847
-0.0162845
-0.0155356
-0.014641
-0.013602
-0.0124162
-0.0110749
-0.00956064
-0.007844
-0.00588211
-0.00363417
-0.00113318
0.00140526
0.00362485
0.0050576
0.00516301
0.002412
0.00190396
0.00130564
0.000554404
-0.000517806
-0.00193241
-0.00360685
-0.00542639
-0.00727114
-0.00905069
-0.0107137
-0.0122298
-0.0135839
-0.0147744
-0.0158045
-0.0166801
-0.0174064
-0.0179875
-0.0184259
-0.0187227
-0.0188781
-0.0188923
-0.0187648
-0.0184961
-0.0180876
-0.0175418
-0.0168616
-0.0160496
-0.0151068
-0.0140292
-0.0128053
-0.0114122
-0.00981365
-0.00795794
-0.00577945
-0.0032516
-0.000539366
0.00200077
0.0039543
0.00500609
0.00239238
0.00183252
0.0011189
0.000176164
-0.00116
-0.00283909
-0.00473543
-0.00670052
-0.00863115
-0.010442
-0.0120991
-0.0135832
-0.0148914
-0.0160298
-0.0170071
-0.017833
-0.0185151
-0.0190591
-0.0194688
-0.0197463
-0.0198925
-0.0199078
-0.0197922
-0.0195465
-0.0191719
-0.0186705
-0.0180449
-0.0172978
-0.01643
-0.0154385
-0.0143124
-0.0130297
-0.0115543
-0.00983457
-0.00779725
-0.00537001
-0.00263314
2.92162e-05
0.00233516
0.00393101
0.00200303
0.00140235
0.000589018
-0.000513829
-0.00204608
-0.00390778
-0.00592968
-0.00796969
-0.00992444
-0.0117245
-0.0133484
-0.0147858
-0.0160427
-0.0171298
-0.0180596
-0.0188434
-0.01949
-0.0200058
-0.020395
-0.0206599
-0.0208019
-0.0208212
-0.0207183
-0.0204938
-0.0201487
-0.0196847
-0.0191042
-0.0184095
-0.0176022
-0.0166808
-0.0156372
-0.0144531
-0.0130969
-0.011521
-0.0096587
-0.00741911
-0.00478323
-0.00214537
0.000191917
0.00186457
0.00126788
0.000645105
-0.000238691
-0.00146161
-0.00311295
-0.00507217
-0.00713983
-0.00919573
-0.0111292
-0.0128893
-0.0144626
-0.0158459
-0.0170504
-0.0180898
-0.0189779
-0.0197267
-0.0203452
-0.0208397
-0.0212144
-0.0214716
-0.0216126
-0.0216377
-0.0215476
-0.0213427
-0.0210237
-0.0205921
-0.0200497
-0.019399
-0.018642
-0.0177791
-0.0168059
-0.0157095
-0.0144647
-0.013031
-0.0113511
-0.00934031
-0.00693271
-0.00440542
-0.00224333
-0.0007209
0.000264354
-0.000359064
-0.00128035
-0.00257498
-0.00428493
-0.00626378
-0.00832152
-0.0103472
-0.0122289
-0.0139312
-0.0154449
-0.0167719
-0.0179261
-0.0189222
-0.0197745
-0.0204944
-0.0210907
-0.021569
-0.0219333
-0.0221858
-0.0223277
-0.0223595
-0.0222816
-0.0220945
-0.0217988
-0.0213956
-0.0208864
-0.0202737
-0.01956
-0.0187475
-0.0178355
-0.016817
-0.0156745
-0.0143759
-0.0128732
-0.0110995
-0.00898291
-0.00664586
-0.00474787
-0.00346197
-0.00089985
-0.00150993
-0.0024416
-0.0037587
-0.0054716
-0.00741787
-0.00943504
-0.0113989
-0.0132115
-0.0148473
-0.0162987
-0.017571
-0.0186787
-0.0196366
-0.0204582
-0.0211543
-0.0217326
-0.0221984
-0.0225551
-0.0228048
-0.0229485
-0.0229868
-0.0229202
-0.0227491
-0.022474
-0.0220956
-0.0216156
-0.0210362
-0.0203605
-0.0195921
-0.0187336
-0.0177836
-0.0167325
-0.0155576
-0.014222
-0.0126756
-0.0108509
-0.00877967
-0.00713963
-0.00608505
-0.00211792
-0.00270107
-0.00362328
-0.00492566
-0.00660265
-0.00848817
-0.0104427
-0.0123298
-0.0140675
-0.0156352
-0.0170265
-0.0182482
-0.0193144
-0.020239
-0.0210347
-0.0217109
-0.0222747
-0.0227306
-0.0230816
-0.0233294
-0.0234752
-0.0235195
-0.0234629
-0.0233057
-0.0230484
-0.0226918
-0.0222372
-0.0216869
-0.0210445
-0.0203147
-0.0195029
-0.0186125
-0.0176408
-0.0165747
-0.0153871
-0.0140379
-0.0124772
-0.0107317
-0.00932871
-0.00844281
-0.00328891
-0.0038381
-0.00473408
-0.00600435
-0.00762542
-0.00943727
-0.0113174
-0.0131248
-0.0147895
-0.016293
-0.0176296
-0.0188065
-0.0198367
-0.0207332
-0.0215072
-0.0221672
-0.0227191
-0.0231671
-0.0235136
-0.0237602
-0.0239079
-0.0239574
-0.0239091
-0.0237635
-0.0235212
-0.0231829
-0.02275
-0.0222247
-0.0216109
-0.0209144
-0.0201426
-0.019303
-0.0183993
-0.0174264
-0.0163648
-0.0151808
-0.0138452
-0.0124
-0.0112186
-0.0104685
-0.00433756
-0.00484468
-0.00570441
-0.00693544
-0.00849671
-0.0102353
-0.0120404
-0.0137728
-0.0153717
-0.0168186
-0.0181081
-0.0192472
-0.0202476
-0.021121
-0.0218774
-0.0225243
-0.0230669
-0.0235087
-0.0238517
-0.0240975
-0.0242468
-0.0243003
-0.0242586
-0.0241222
-0.0238918
-0.0235682
-0.0231528
-0.022648
-0.0220579
-0.0213889
-0.02065
-0.019852
-0.0190039
-0.0181076
-0.0171503
-0.016105
-0.0149596
-0.0137656
-0.0127776
-0.0121329
-0.00520245
-0.00567323
-0.00649082
-0.0076802
-0.00918518
-0.0108604
-0.0125986
-0.0142662
-0.0158094
-0.0172096
-0.0184612
-0.0195702
-0.0205472
-0.0214027
-0.0221458
-0.0227828
-0.0233185
-0.0237558
-0.0240964
-0.0243416
-0.0244921
-0.0245486
-0.0245116
-0.0243818
-0.0241599
-0.0238469
-0.0234445
-0.0229552
-0.0223833
-0.0217355
-0.0210222
-0.0202563
-0.0194512
-0.0186145
-0.0177405
-0.0168099
-0.0158194
-0.0148136
-0.0139897
-0.0134341
-0.00585753
-0.00628276
-0.00706432
-0.00821779
-0.00967429
-0.0112993
-0.0129831
-0.0145991
-0.016099
-0.0174638
-0.0186873
-0.0197744
-0.0207348
-0.0215781
-0.0223121
-0.0229427
-0.0234741
-0.0239086
-0.0242479
-0.0244929
-0.0246443
-0.0247026
-0.0246684
-0.0245425
-0.0243256
-0.0240191
-0.0236246
-0.0231452
-0.022585
-0.0219515
-0.0212556
-0.020512
-0.0197371
-0.0189436
-0.0181326
-0.017293
-0.0164247
-0.0155637
-0.0148676
-0.0143817
-0.00627536
-0.0066632
-0.00741979
-0.00854321
-0.00995777
-0.0115466
-0.0131892
-0.0147676
-0.0162376
-0.0175787
-0.0187844
-0.0198582
-0.0208091
-0.0216458
-0.0223755
-0.0230034
-0.0235332
-0.0239672
-0.0243065
-0.024552
-0.0247041
-0.0247632
-0.0247299
-0.024605
-0.0243895
-0.0240848
-0.023693
-0.0232171
-0.0226618
-0.0220347
-0.0213474
-0.0206157
-0.0198585
-0.0190925
-0.018325
-0.0175529
-0.0167778
-0.0160232
-0.0154237
-0.0149924
-0.00643861
-0.0068111
-0.00755852
-0.00866105
-0.0100407
-0.0116018
-0.0132146
-0.0147699
-0.0162231
-0.0175521
-0.0187498
-0.0198193
-0.0207682
-0.0216044
-0.0223347
-0.0229641
-0.0234957
-0.0239315
-0.0242725
-0.0245193
-0.0246721
-0.0247312
-0.024697
-0.0245704
-0.0243524
-0.0240448
-0.0236498
-0.0231707
-0.0226126
-0.0219837
-0.0212956
-0.0205644
-0.0198124
-0.0190588
-0.0183163
-0.0175897
-0.0168847
-0.0162106
-0.0156807
-0.015283
-0.00638043
-0.00674323
-0.00748778
-0.00857937
-0.00993273
-0.0114689
-0.0130661
-0.0146092
-0.0160554
-0.0173822
-0.0185813
-0.0196548
-0.0206092
-0.0214515
-0.0221881
-0.0228234
-0.0233606
-0.0238011
-0.024146
-0.0243953
-0.0245491
-0.0246076
-0.024571
-0.02444
-0.0242158
-0.0239001
-0.0234955
-0.0230058
-0.0224367
-0.0217964
-0.0210974
-0.0203569
-0.0195972
-0.0188408
-0.018105
-0.0174024
-0.0167463
-0.0161305
-0.0156641
-0.015268
-0.00614184
-0.00649327
-0.00723413
-0.00831962
-0.0096515
-0.0111587
-0.0127472
-0.0142864
-0.0157336
-0.0170665
-0.0182757
-0.0193615
-0.0203289
-0.0211842
-0.0219331
-0.0225798
-0.0231268
-0.0235757
-0.0239269
-0.0241805
-0.0243361
-0.0243937
-0.0243533
-0.0242154
-0.0239812
-0.0236525
-0.023232
-0.022724
-0.0221346
-0.0214729
-0.0207522
-0.0199906
-0.0192109
-0.0184372
-0.0176914
-0.0169937
-0.0163664
-0.0157826
-0.0153901
-0.0149597
-0.00576772
-0.00610536
-0.00683554
-0.00790932
-0.0092201
-0.0106919
-0.0122628
-0.013802
-0.0152563
-0.0166022
-0.017829
-0.0189349
-0.0199233
-0.0207991
-0.0215671
-0.0222311
-0.0227932
-0.0232545
-0.0236154
-0.0238753
-0.0240339
-0.0240906
-0.0240452
-0.0238981
-0.0236503
-0.0233035
-0.0228607
-0.0223266
-0.0217077
-0.0210141
-0.0202602
-0.019465
-0.0186525
-0.0178479
-0.017077
-0.0163701
-0.0157566
-0.0151683
-0.0148272
-0.0143745
-0.00531695
-0.00563429
-0.00633712
-0.00737971
-0.00865887
-0.0100921
-0.0116269
-0.0131607
-0.0146229
-0.015986
-0.0172365
-0.01837
-0.0193873
-0.0202917
-0.0210866
-0.0217747
-0.0223578
-0.0228367
-0.023211
-0.0234802
-0.0236434
-0.0236997
-0.0236486
-0.0234902
-0.0232252
-0.0228554
-0.0223839
-0.0218155
-0.0211578
-0.0204217
-0.0196225
-0.018781
-0.0179222
-0.0170732
-0.0162639
-0.0155366
-0.014927
-0.0142997
-0.0140049
-0.0135295
-0.0048613
-0.00514274
-0.00578816
-0.00676837
-0.00798976
-0.0093711
-0.010856
-0.0123696
-0.0138339
-0.0152143
-0.0164928
-0.0176608
-0.0187154
-0.019657
-0.0204872
-0.0212075
-0.0218187
-0.0223209
-0.0227136
-0.0229956
-0.0231657
-0.0232226
-0.0231654
-0.022994
-0.0227087
-0.0223112
-0.0218045
-0.021194
-0.0204879
-0.0196982
-0.018842
-0.0179413
-0.0170229
-0.0161151
-0.0152534
-0.0144893
-0.0138571
-0.0132019
-0.0129666
-0.0124441
-0.00447353
-0.00468778
-0.00523198
-0.00611114
-0.00724102
-0.00854303
-0.00996115
-0.0114345
-0.0128893
-0.0142835
-0.0155922
-0.0168007
-0.0179009
-0.0188892
-0.0197643
-0.0205257
-0.0211732
-0.021706
-0.0221228
-0.022422
-0.0226021
-0.0226613
-0.0225983
-0.0224126
-0.0221044
-0.0216749
-0.0211272
-0.020467
-0.0197033
-0.0188494
-0.0179241
-0.0169513
-0.0159597
-0.014979
-0.0140502
-0.013233
-0.012564
-0.011871
-0.01172
-0.0111101
-0.00420258
-0.00430177
-0.00469799
-0.00543911
-0.00644232
-0.00762852
-0.00895151
-0.0103607
-0.0117899
-0.0131906
-0.0145296
-0.0157836
-0.0169377
-0.0179826
-0.0189131
-0.019726
-0.0204192
-0.0209907
-0.0214385
-0.0217605
-0.0219546
-0.0220186
-0.0219509
-0.0217505
-0.0214172
-0.0209522
-0.0203585
-0.0196419
-0.0188122
-0.0178842
-0.0168785
-0.0158209
-0.0147425
-0.0136749
-0.012664
-0.0117766
-0.0110517
-0.0102938
-0.0102659
-0.0094893
-0.00403267
-0.00396528
-0.00420236
-0.00478005
-0.00561854
-0.00664809
-0.00783908
-0.00915536
-0.0105385
-0.011935
-0.0133016
-0.0146049
-0.0158208
-0.0169327
-0.0179299
-0.0188057
-0.0195552
-0.0201749
-0.0206618
-0.0210131
-0.0212262
-0.0212985
-0.0212284
-0.0210137
-0.0206545
-0.0201516
-0.0195081
-0.0187299
-0.0178276
-0.016817
-0.0157208
-0.0145667
-0.0133883
-0.0122194
-0.0111116
-0.0101364
-0.00933349
-0.00848924
-0.00858457
-0.00749737
-0.00382648
-0.00363768
-0.00375966
-0.00415531
-0.00478704
-0.00561729
-0.00663797
-0.0078298
-0.00914331
-0.0105213
-0.0119102
-0.0132648
-0.0145494
-0.0157385
-0.0168142
-0.0177648
-0.0185821
-0.0192605
-0.0197956
-0.0201839
-0.0204221
-0.0205074
-0.0204378
-0.0202113
-0.019827
-0.0192858
-0.0185908
-0.0177481
-0.0167688
-0.0156697
-0.0144752
-0.0132144
-0.0119237
-0.0106395
-0.00941972
-0.00833671
-0.00743332
-0.00649174
-0.00663239
-0.00505809
-0.00352945
-0.00335117
-0.00338585
-0.00357522
-0.00395992
-0.00454964
-0.00536309
-0.00639948
-0.00761934
-0.00896299
-0.0103667
-0.011772
-0.0131307
-0.0144058
-0.0155711
-0.0166085
-0.0175055
-0.0182537
-0.018847
-0.0192809
-0.0195517
-0.0196563
-0.0195923
-0.0193576
-0.0189509
-0.0183735
-0.0176284
-0.0167216
-0.0156647
-0.0144749
-0.0131774
-0.0118024
-0.0103886
-0.00897535
-0.00762733
-0.00641443
-0.00538629
-0.0043295
-0.00437291
-0.00217138
-0.00327085
-0.00315078
-0.00308577
-0.00304583
-0.00314782
-0.00345869
-0.00403178
-0.00488629
-0.00599204
-0.00728677
-0.00869671
-0.0101502
-0.0115853
-0.012953
-0.0142171
-0.0153518
-0.0163394
-0.0171681
-0.0178296
-0.0183184
-0.0186302
-0.0187616
-0.01871
-0.0184736
-0.0180504
-0.0174423
-0.0166525
-0.0156868
-0.0145565
-0.0132786
-0.0118779
-0.0103844
-0.00883858
-0.00728181
-0.00578563
-0.00441383
-0.00322121
-0.00198583
-0.0017802
0.00105464
-0.003077
-0.00301692
-0.00284293
-0.00256641
-0.00235793
-0.00235745
-0.00266414
-0.00331945
-0.00429918
-0.0055357
-0.00694489
-0.00844251
-0.00995355
-0.0114166
-0.0127849
-0.0140243
-0.0151111
-0.0160294
-0.0167683
-0.0173209
-0.0176823
-0.017849
-0.0178183
-0.0175892
-0.0171597
-0.0165312
-0.0157072
-0.0146935
-0.0135003
-0.0121426
-0.0106438
-0.00903084
-0.00734446
-0.00562527
-0.00394855
-0.00236595
-0.000938716
0.00057445
0.0011572
0.00461199
-0.00288077
-0.00289368
-0.0026139
-0.00210825
-0.00157854
-0.00125525
-0.00128868
-0.00174151
-0.00259408
-0.00377171
-0.0051781
-0.00671668
-0.00830061
-0.00985735
-0.01133
-0.0126763
-0.0138663
-0.0148795
-0.0157024
-0.0163262
-0.0167455
-0.0169565
-0.0169568
-0.0167453
-0.0163237
-0.0156893
-0.0148471
-0.0138021
-0.0125624
-0.011139
-0.00955124
-0.00781961
-0.00598111
-0.00406797
-0.00215143
-0.000259674
0.00153954
0.00350844
0.00466262
0.00888956
-0.00263111
-0.00269635
-0.0023441
-0.00162326
-0.000787829
-0.000164173
5.43315e-05
-0.000213853
-0.000951603
-0.00207712
-0.00348358
-0.00506252
-0.00671562
-0.0083606
-0.00993236
-0.0113815
-0.0126725
-0.0137804
-0.0146893
-0.0153886
-0.0158718
-0.016135
-0.0161764
-0.0159948
-0.0155915
-0.0149679
-0.0141251
-0.0130672
-0.0118
-0.0103272
-0.00866194
-0.0068115
-0.0048026
-0.00264372
-0.000386223
0.0019921
0.00442954
0.00722519
0.00946648
0.0152848
-0.00232872
-0.00240072
-0.00196919
-0.00107118
2.242e-05
0.000881688
0.00129845
0.00117691
0.000529655
-0.000554359
-0.00196097
-0.00357409
-0.00528722
-0.00700968
-0.00866978
-0.0102126
-0.0115972
-0.0127951
-0.0137877
-0.0145628
-0.0151128
-0.0154332
-0.0155226
-0.0153803
-0.0150073
-0.0144035
-0.0135714
-0.0125133
-0.0112322
-0.00972386
-0.00799236
-0.00602324
-0.00382218
-0.00134891
0.00139093
0.00453124
0.00805531
0.0124558
0.0171444
0.0266629
-0.00212316
-0.00215309
-0.00156665
-0.000475062
0.000787214
0.00183391
0.0023743
0.00234546
0.00175634
0.000691686
-0.000726776
-0.00237609
-0.00414416
-0.00593383
-0.00766799
-0.0092885
-0.0107504
-0.0120229
-0.0130859
-0.0139256
-0.014534
-0.0149057
-0.0150396
-0.0149351
-0.0145933
-0.0140138
-0.0131978
-0.0121391
-0.0108434
-0.00930371
-0.00751419
-0.00543198
-0.00303132
-0.000194144
0.00315602
0.00737646
0.0125848
0.0199849
0.0296724
0.0462026
-0.00305935
-0.00247867
-0.00142233
-1.71788e-05
0.00143888
0.00258989
0.0032043
0.00322043
0.00266125
0.00161233
0.000193509
-0.00147375
-0.00327625
-0.00511448
-0.00690613
-0.0085884
-0.0101127
-0.0114457
-0.0125652
-0.0134558
-0.0141094
-0.0145211
-0.014689
-0.0146125
-0.0142925
-0.0137284
-0.0129207
-0.0118668
-0.0105663
-0.00900062
-0.00716001
-0.00499703
-0.00243677
0.00068323
0.00464678
0.010085
0.0176642
0.029893
0.0476799
0.0743554
-0.00517535
-0.00163102
-3.86858e-05
0.00132934
0.0026592
0.00370772
0.00424878
0.00419614
0.00357786
0.00249102
0.00104519
-0.000650852
-0.00249006
-0.00437417
-0.00621935
-0.00795673
-0.00953662
-0.0109233
-0.0120913
-0.013025
-0.0137151
-0.0141576
-0.0143507
-0.0142945
-0.0139892
-0.0134349
-0.0126308
-0.0115732
-0.0102548
-0.00867303
-0.00680047
-0.00465392
-0.00197036
0.00115616
0.00566201
0.01196
0.0228043
0.0408129
0.0684601
0.104164
)
;

boundaryField
{
    movingWall
    {
        type            zeroGradient;
    }
    fixedWalls
    {
        type            zeroGradient;
    }
    frontAndBack
    {
        type            empty;
    }
}


// ************************************************************************* //
