/*--------------------------------*- C++ -*----------------------------------*\
  =========                 |
  \\      /  F ield         | OpenFOAM: The Open Source CFD Toolbox
   \\    /   O peration     | Website:  https://openfoam.org
    \\  /    A nd           | Version:  12
     \\/     M anipulation  |
\*---------------------------------------------------------------------------*/
FoamFile
{
    format      ascii;
    class       surfaceScalarField;
    location    "7";
    object      phi;
}
// * * * * * * * * * * * * * * * * * * * * * * * * * * * * * * * * * * * * * //

dimensions      [0 3 -1 0 0 0 0];

internalField   nonuniform List<scalar> 
3120
(
9.10524e-08
-9.10534e-08
2.25692e-07
-1.3464e-07
3.26124e-07
-1.00431e-07
3.61168e-07
-3.50445e-08
3.51762e-07
9.40546e-09
3.32395e-07
1.93672e-08
3.24743e-07
7.65163e-09
3.20288e-07
4.45562e-09
2.9866e-07
2.16275e-08
2.44194e-07
5.44659e-08
1.38038e-07
1.06156e-07
-6.78016e-08
2.0584e-07
-3.93436e-07
3.25634e-07
-8.71148e-07
4.77712e-07
-1.44888e-06
5.77735e-07
-2.02339e-06
5.74509e-07
-2.54701e-06
5.23614e-07
-2.99822e-06
4.51217e-07
-3.37344e-06
3.75221e-07
-3.67359e-06
3.00141e-07
-3.90045e-06
2.26864e-07
-4.05569e-06
1.5524e-07
-4.13996e-06
8.42745e-08
-4.15193e-06
1.19625e-08
-4.08699e-06
-6.49402e-08
-3.94795e-06
-1.39035e-07
-3.72105e-06
-2.26901e-07
-3.4061e-06
-3.14951e-07
-2.99535e-06
-4.10746e-07
-2.49009e-06
-5.05263e-07
-1.89197e-06
-5.98121e-07
-1.22338e-06
-6.68588e-07
-5.3883e-07
-6.84551e-07
8.47191e-08
-6.23549e-07
5.77119e-07
-4.924e-07
7.7883e-07
-2.01711e-07
6.64639e-07
1.14191e-07
4.3049e-07
2.34149e-07
1.81198e-07
2.49292e-07
1.81198e-07
1.65253e-07
-2.56306e-07
3.47959e-07
-3.17347e-07
4.61825e-07
-2.14298e-07
4.95263e-07
-6.84829e-08
4.64724e-07
3.99452e-08
3.9291e-07
9.11802e-08
2.91266e-07
1.09296e-07
1.37851e-07
1.57871e-07
-1.09885e-07
2.69363e-07
-4.96862e-07
4.41443e-07
-1.05213e-06
6.61425e-07
-1.74337e-06
8.97077e-07
-2.47785e-06
1.06011e-06
-3.12412e-06
1.12398e-06
-3.63301e-06
1.08663e-06
-4.0623e-06
1.0038e-06
-4.42627e-06
8.87582e-07
-4.72929e-06
7.54234e-07
-4.97091e-06
6.16846e-07
-5.15228e-06
4.81509e-07
-5.27376e-06
3.48347e-07
-5.3397e-06
2.21176e-07
-5.34806e-06
9.26344e-08
-5.29775e-06
-3.83461e-08
-5.19121e-06
-1.71483e-07
-5.01724e-06
-3.13007e-07
-4.77654e-06
-4.676e-07
-4.45737e-06
-6.34118e-07
-4.0505e-06
-8.17612e-07
-3.55199e-06
-1.00378e-06
-2.96731e-06
-1.1828e-06
-2.30452e-06
-1.33137e-06
-1.58913e-06
-1.39995e-06
-8.63954e-07
-1.34872e-06
-2.40688e-07
-1.11567e-06
2.23749e-07
-6.66148e-07
3.77717e-07
-3.97767e-08
3.12436e-07
2.9943e-07
1.45981e-07
4.15746e-07
3.27179e-07
2.01905e-07
-4.5821e-07
3.44843e-07
-4.60285e-07
3.95919e-07
-2.65374e-07
3.69563e-07
-4.21271e-08
2.76809e-07
1.32699e-07
1.12101e-07
2.55888e-07
-1.61236e-07
3.82633e-07
-5.78427e-07
5.75062e-07
-1.15551e-06
8.46443e-07
-1.85952e-06
1.14545e-06
-2.59239e-06
1.39429e-06
-3.23568e-06
1.54037e-06
-3.76664e-06
1.59107e-06
-4.19149e-06
1.54883e-06
-4.53975e-06
1.43489e-06
-4.82098e-06
1.28503e-06
-5.04843e-06
1.11504e-06
-5.23085e-06
9.36652e-07
-5.37353e-06
7.59531e-07
-5.47774e-06
5.85715e-07
-5.54673e-06
4.17336e-07
-5.57628e-06
2.50727e-07
-5.56427e-06
8.06247e-08
-5.5133e-06
-8.93181e-08
-5.42117e-06
-2.63616e-07
-5.28459e-06
-4.49582e-07
-5.10071e-06
-6.51478e-07
-4.86385e-06
-8.70984e-07
-4.56924e-06
-1.11222e-06
-4.20201e-06
-1.37101e-06
-3.7492e-06
-1.63561e-06
-3.20182e-06
-1.87875e-06
-2.56297e-06
-2.03879e-06
-1.85893e-06
-2.05277e-06
-1.14147e-06
-1.83313e-06
-4.936e-07
-1.31401e-06
-7.72485e-08
-4.56128e-07
3.43179e-08
1.87864e-07
2.40843e-08
4.2598e-07
3.51264e-07
1.70247e-07
-6.28457e-07
2.27796e-07
-5.17834e-07
1.85628e-07
-2.23206e-07
6.50896e-08
7.84111e-08
-1.41906e-07
3.39694e-07
-4.70599e-07
5.84581e-07
-9.49866e-07
8.619e-07
-1.56969e-06
1.19489e-06
-2.26592e-06
1.54266e-06
-2.9448e-06
1.82434e-06
-3.52493e-06
1.97442e-06
-3.98523e-06
2.00067e-06
-4.33802e-06
1.94386e-06
-4.60878e-06
1.81959e-06
-4.82612e-06
1.65224e-06
-4.99918e-06
1.45809e-06
-5.13996e-06
1.25582e-06
-5.25665e-06
1.05334e-06
-5.35044e-06
8.53321e-07
-5.41688e-06
6.52157e-07
-5.45665e-06
4.57102e-07
-5.46733e-06
2.61409e-07
-5.45044e-06
6.37393e-08
-5.40733e-06
-1.3243e-07
-5.33571e-06
-3.35244e-07
-5.2328e-06
-5.52491e-07
-5.09673e-06
-7.87545e-07
-4.92348e-06
-1.04423e-06
-4.71179e-06
-1.32391e-06
-4.45661e-06
-1.6262e-06
-4.15239e-06
-1.93983e-06
-3.7824e-06
-2.24874e-06
-3.30444e-06
-2.51675e-06
-2.69765e-06
-2.65956e-06
-1.97289e-06
-2.55789e-06
-1.18813e-06
-2.09878e-06
-4.58675e-07
-1.18558e-06
-1.31095e-07
-1.39716e-07
-2.64496e-08
3.21334e-07
3.24814e-07
8.18137e-08
-7.10271e-07
2.75241e-08
-4.63544e-07
-1.20597e-07
-7.50839e-08
-3.53048e-07
3.10862e-07
-6.94008e-07
6.80654e-07
-1.16545e-06
1.05602e-06
-1.75951e-06
1.45596e-06
-2.41646e-06
1.85184e-06
-3.04424e-06
2.17045e-06
-3.56351e-06
2.34362e-06
-3.96134e-06
2.37224e-06
-4.26685e-06
2.30618e-06
-4.49586e-06
2.17286e-06
-4.67012e-06
1.99386e-06
-4.80802e-06
1.79013e-06
-4.92087e-06
1.57094e-06
-5.00932e-06
1.34427e-06
-5.0717e-06
1.11572e-06
-5.10853e-06
8.90155e-07
-5.12686e-06
6.70485e-07
-5.12827e-06
4.58511e-07
-5.11552e-06
2.48657e-07
-5.08985e-06
3.80657e-08
-5.04884e-06
-1.73437e-07
-4.99069e-06
-3.93396e-07
-4.91584e-06
-6.27333e-07
-4.82367e-06
-8.79717e-07
-4.71254e-06
-1.15536e-06
-4.57883e-06
-1.45762e-06
-4.41752e-06
-1.78751e-06
-4.21881e-06
-2.13854e-06
-3.97432e-06
-2.49323e-06
-3.66551e-06
-2.82556e-06
-3.24789e-06
-3.07718e-06
-2.65518e-06
-3.1506e-06
-1.87508e-06
-2.87888e-06
-9.34482e-07
-2.12618e-06
-2.21198e-07
-8.53e-07
-1.38978e-08
1.14034e-07
3.10916e-07
-4.88751e-08
-6.61396e-07
-2.15648e-07
-2.96772e-07
-4.6458e-07
1.73849e-07
-8.04083e-07
6.50365e-07
-1.25149e-06
1.12806e-06
-1.80011e-06
1.60464e-06
-2.40343e-06
2.05929e-06
-2.98336e-06
2.43176e-06
-3.46411e-06
2.6512e-06
-3.82198e-06
2.70149e-06
-4.08841e-06
2.63867e-06
-4.28623e-06
2.504e-06
-4.43039e-06
2.31703e-06
-4.53563e-06
2.09909e-06
-4.60686e-06
1.86137e-06
-4.65114e-06
1.61522e-06
-4.67497e-06
1.3681e-06
-4.6852e-06
1.12595e-06
-4.68657e-06
8.91521e-07
-4.68018e-06
6.64097e-07
-4.66419e-06
4.42518e-07
-4.63945e-06
2.23925e-07
-4.6067e-06
5.31144e-09
-4.56451e-06
-2.1563e-07
-4.51335e-06
-4.44549e-07
-4.45453e-06
-6.86157e-07
-4.38889e-06
-9.45354e-07
-4.31698e-06
-1.22728e-06
-4.23818e-06
-1.53642e-06
-4.15011e-06
-1.87558e-06
-4.04545e-06
-2.2432e-06
-3.90891e-06
-2.62977e-06
-3.72287e-06
-3.0116e-06
-3.45798e-06
-3.34208e-06
-3.05759e-06
-3.55099e-06
-2.4296e-06
-3.50686e-06
-1.52721e-06
-3.02857e-06
-4.99437e-07
-1.88078e-06
-3.43119e-08
-3.51091e-07
2.76604e-07
-1.73334e-07
-4.88062e-07
-4.52546e-07
-1.75591e-08
-7.91199e-07
5.12501e-07
-1.21519e-06
1.07436e-06
-1.72057e-06
1.63344e-06
-2.27286e-06
2.15693e-06
-2.81152e-06
2.59795e-06
-3.26656e-06
2.8868e-06
-3.60022e-06
2.98487e-06
-3.83767e-06
2.93894e-06
-4.00779e-06
2.80878e-06
-4.12278e-06
2.619e-06
-4.19624e-06
2.39049e-06
-4.23768e-06
2.14053e-06
-4.25632e-06
1.88001e-06
-4.26009e-06
1.61898e-06
-4.25465e-06
1.36266e-06
-4.24315e-06
1.11445e-06
-4.22636e-06
8.74724e-07
-4.20458e-06
6.42319e-07
-4.17761e-06
4.1555e-07
-4.14544e-06
1.91751e-07
-4.10845e-06
-3.1676e-08
-4.06596e-06
-2.58118e-07
-4.01892e-06
-4.91589e-07
-3.96865e-06
-7.36431e-07
-3.91673e-06
-9.97266e-07
-3.86494e-06
-1.27907e-06
-3.81459e-06
-1.58677e-06
-3.76564e-06
-1.92453e-06
-3.71475e-06
-2.29409e-06
-3.65288e-06
-2.69164e-06
-3.56192e-06
-3.10256e-06
-3.40954e-06
-3.49446e-06
-3.15308e-06
-3.80744e-06
-2.71912e-06
-3.94083e-06
-2.01782e-06
-3.72987e-06
-9.57265e-07
-2.94133e-06
-1.17953e-07
-1.1904e-06
1.58652e-07
-2.84099e-07
-2.03963e-07
-6.42934e-07
3.41275e-07
-1.05807e-06
9.2764e-07
-1.5308e-06
1.54708e-06
-2.0418e-06
2.14443e-06
-2.54834e-06
2.66347e-06
-2.99093e-06
3.04054e-06
-3.31841e-06
3.21427e-06
-3.54059e-06
3.20705e-06
-3.69287e-06
3.09122e-06
-3.79036e-06
2.90627e-06
-3.84499e-06
2.67363e-06
-3.8691e-06
2.41459e-06
-3.87208e-06
2.14351e-06
-3.86237e-06
1.8703e-06
-3.84553e-06
1.60214e-06
-3.82494e-06
1.34207e-06
-3.8019e-06
1.09141e-06
-3.77653e-06
8.49357e-07
-3.74872e-06
6.14516e-07
-3.71807e-06
3.84895e-07
-3.68421e-06
1.57892e-07
-3.64686e-06
-6.90275e-08
-3.60593e-06
-2.99048e-07
-3.56208e-06
-5.35437e-07
-3.51667e-06
-7.81847e-07
-3.47164e-06
-1.04229e-06
-3.42944e-06
-1.32126e-06
-3.39254e-06
-1.62368e-06
-3.36248e-06
-1.95459e-06
-3.33842e-06
-2.31814e-06
-3.3149e-06
-2.71516e-06
-3.27835e-06
-3.13911e-06
-3.20267e-06
-3.57014e-06
-3.04579e-06
-3.96432e-06
-2.75048e-06
-4.23614e-06
-2.24327e-06
-4.23708e-06
-1.42264e-06
-3.76196e-06
-3.37975e-07
-2.27507e-06
-1.79324e-07
-3.59745e-07
1.55782e-07
-7.84277e-07
7.65807e-07
-1.23938e-06
1.38274e-06
-1.72108e-06
2.02879e-06
-2.20463e-06
2.62798e-06
-2.64628e-06
3.10512e-06
-2.98362e-06
3.37788e-06
-3.20886e-06
3.43951e-06
-3.35602e-06
3.35421e-06
-3.44722e-06
3.18241e-06
-3.49441e-06
2.95347e-06
-3.51016e-06
2.68938e-06
-3.50533e-06
2.40976e-06
-3.48821e-06
2.1264e-06
-3.46516e-06
1.84725e-06
-3.43969e-06
1.57667e-06
-3.41364e-06
1.31602e-06
-3.38745e-06
1.06522e-06
-3.36089e-06
8.22792e-07
-3.33332e-06
5.8695e-07
-3.30391e-06
3.55485e-07
-3.27195e-06
1.25926e-07
-3.23674e-06
-1.04232e-07
-3.19821e-06
-3.37577e-07
-3.15678e-06
-5.76866e-07
-3.11361e-06
-8.25016e-07
-3.07066e-06
-1.08525e-06
-3.03062e-06
-1.3613e-06
-2.99667e-06
-1.65762e-06
-2.97178e-06
-1.97948e-06
-2.95734e-06
-2.33259e-06
-2.95089e-06
-2.72161e-06
-2.94294e-06
-3.14705e-06
-2.91312e-06
-3.59995e-06
-2.82536e-06
-4.05209e-06
-2.62799e-06
-4.43351e-06
-2.2754e-06
-4.58967e-06
-1.68478e-06
-4.35258e-06
-6.30201e-07
-3.32965e-06
-8.09525e-07
-4.03951e-07
5.59733e-07
-8.62605e-07
1.22446e-06
-1.32945e-06
1.84958e-06
-1.79584e-06
2.49519e-06
-2.23733e-06
3.06947e-06
-2.59705e-06
3.46484e-06
-2.8416e-06
3.62243e-06
-2.99976e-06
3.59767e-06
-3.09538e-06
3.44983e-06
-3.14522e-06
3.23225e-06
-3.1611e-06
2.96935e-06
-3.15499e-06
2.68326e-06
-3.13609e-06
2.39086e-06
-3.11103e-06
2.10135e-06
-3.08423e-06
1.82045e-06
-3.05788e-06
1.55032e-06
-3.03283e-06
1.29097e-06
-3.00892e-06
1.04131e-06
-2.98547e-06
7.99336e-07
-2.96145e-06
5.62935e-07
-2.93579e-06
3.2982e-07
-2.90757e-06
9.77081e-08
-2.87602e-06
-1.35784e-07
-2.84084e-06
-3.72757e-07
-2.80222e-06
-6.1548e-07
-2.76098e-06
-8.66257e-07
-2.7187e-06
-1.12753e-06
-2.6778e-06
-1.4022e-06
-2.64148e-06
-1.69393e-06
-2.61334e-06
-2.00763e-06
-2.5963e-06
-2.34963e-06
-2.59066e-06
-2.72725e-06
-2.59112e-06
-3.14659e-06
-2.58328e-06
-3.6078e-06
-2.53827e-06
-4.0971e-06
-2.40599e-06
-4.56579e-06
-2.13847e-06
-4.85719e-06
-1.67613e-06
-4.81492e-06
-8.96874e-07
-4.1089e-06
-1.7064e-06
-4.21616e-07
9.81349e-07
-8.84981e-07
1.68783e-06
-1.34018e-06
2.30478e-06
-1.77451e-06
2.92952e-06
-2.1593e-06
3.45425e-06
-2.43618e-06
3.74173e-06
-2.61975e-06
3.80599e-06
-2.73251e-06
3.71043e-06
-2.79367e-06
3.51099e-06
-2.81794e-06
3.25652e-06
-2.81676e-06
2.96817e-06
-2.80086e-06
2.66736e-06
-2.77765e-06
2.36765e-06
-2.75221e-06
2.0759e-06
-2.72747e-06
1.79571e-06
-2.70467e-06
1.52752e-06
-2.68398e-06
1.27028e-06
-2.66474e-06
1.02207e-06
-2.64599e-06
7.80585e-07
-2.62657e-06
5.43515e-07
-2.60537e-06
3.08616e-07
-2.58145e-06
7.37901e-08
-2.5541e-06
-1.63136e-07
-2.52287e-06
-4.03985e-07
-2.48775e-06
-6.50598e-07
-2.44919e-06
-9.04821e-07
-2.40825e-06
-1.16847e-06
-2.36678e-06
-1.44367e-06
-2.32752e-06
-1.7332e-06
-2.29395e-06
-2.04119e-06
-2.26972e-06
-2.37386e-06
-2.25705e-06
-2.73993e-06
-2.25409e-06
-3.14954e-06
-2.25169e-06
-3.61019e-06
-2.22898e-06
-4.11981e-06
-2.14248e-06
-4.65229e-06
-1.92169e-06
-5.07797e-06
-1.54919e-06
-5.18742e-06
-9.45027e-07
-4.71306e-06
-2.65143e-06
-4.12008e-07
1.39336e-06
-8.58676e-07
2.13449e-06
-1.28483e-06
2.73093e-06
-1.67825e-06
3.32294e-06
-1.99756e-06
3.77356e-06
-2.21333e-06
3.95751e-06
-2.35526e-06
3.94792e-06
-2.43578e-06
3.79095e-06
-2.47515e-06
3.55037e-06
-2.48528e-06
3.26665e-06
-2.47686e-06
2.95975e-06
-2.45889e-06
2.64939e-06
-2.43718e-06
2.34594e-06
-2.41547e-06
2.0542e-06
-2.39564e-06
1.77588e-06
-2.37821e-06
1.51009e-06
-2.36282e-06
1.25489e-06
-2.34861e-06
1.00787e-06
-2.33453e-06
7.66501e-07
-2.31948e-06
5.28464e-07
-2.30248e-06
2.91614e-07
-2.2827e-06
5.40118e-08
-2.25953e-06
-1.86308e-07
-2.2325e-06
-4.31014e-07
-2.20143e-06
-6.81669e-07
-2.16644e-06
-9.39809e-07
-2.12808e-06
-1.20683e-06
-2.08753e-06
-1.48422e-06
-2.04676e-06
-1.77397e-06
-2.0087e-06
-2.07925e-06
-1.977e-06
-2.40556e-06
-1.95502e-06
-2.76191e-06
-1.94354e-06
-3.16102e-06
-1.93737e-06
-3.61637e-06
-1.92201e-06
-4.13517e-06
-1.86689e-06
-4.70741e-06
-1.69036e-06
-5.25451e-06
-1.38267e-06
-5.49511e-06
-8.45007e-07
-5.25072e-06
-3.49643e-06
-3.81993e-07
1.77535e-06
-7.96683e-07
2.54919e-06
-1.1844e-06
3.11865e-06
-1.52962e-06
3.66816e-06
-1.78449e-06
4.02842e-06
-1.95874e-06
4.13176e-06
-2.06866e-06
4.05783e-06
-2.12859e-06
3.85089e-06
-2.15522e-06
3.577e-06
-2.15893e-06
3.27036e-06
-2.14934e-06
2.95016e-06
-2.13367e-06
2.63372e-06
-2.11636e-06
2.32864e-06
-2.10011e-06
2.03794e-06
-2.08596e-06
1.76173e-06
-2.07396e-06
1.49809e-06
-2.0635e-06
1.24443e-06
-2.05368e-06
9.9804e-07
-2.04353e-06
7.56354e-07
-2.03216e-06
5.17096e-07
-2.01879e-06
2.78244e-07
-2.00276e-06
3.79817e-08
-1.98358e-06
-2.05495e-07
-1.96081e-06
-4.53776e-07
-1.93419e-06
-7.08296e-07
-1.90358e-06
-9.70419e-07
-1.86911e-06
-1.2413e-06
-1.83132e-06
-1.52201e-06
-1.79139e-06
-1.8139e-06
-1.75145e-06
-2.1192e-06
-1.71464e-06
-2.44236e-06
-1.68473e-06
-2.79182e-06
-1.6643e-06
-3.18145e-06
-1.65126e-06
-3.62941e-06
-1.63538e-06
-4.15105e-06
-1.594e-06
-4.74879e-06
-1.46463e-06
-5.38388e-06
-1.19356e-06
-5.76618e-06
-7.39835e-07
-5.70445e-06
-4.23627e-06
-3.38382e-07
2.11373e-06
-7.10973e-07
2.92178e-06
-1.05294e-06
3.46061e-06
-1.34418e-06
3.9594e-06
-1.5467e-06
4.23095e-06
-1.68914e-06
4.2742e-06
-1.77618e-06
4.14488e-06
-1.82284e-06
3.89755e-06
-1.8427e-06
3.59685e-06
-1.84476e-06
3.27242e-06
-1.83732e-06
2.94272e-06
-1.82595e-06
2.62235e-06
-1.81403e-06
2.31671e-06
-1.80337e-06
2.02728e-06
-1.79449e-06
1.75285e-06
-1.78715e-06
1.49075e-06
-1.78069e-06
1.23798e-06
-1.77432e-06
9.91674e-07
-1.76729e-06
7.4932e-07
-1.75891e-06
5.08724e-07
-1.74864e-06
2.67972e-07
-1.73599e-06
2.53305e-08
-1.72059e-06
-2.209e-07
-1.70208e-06
-4.72287e-07
-1.68012e-06
-7.30249e-07
-1.65444e-06
-9.96098e-07
-1.62484e-06
-1.2709e-06
-1.59136e-06
-1.5555e-06
-1.55448e-06
-1.85077e-06
-1.51552e-06
-2.15816e-06
-1.4769e-06
-2.48099e-06
-1.44215e-06
-2.82657e-06
-1.4149e-06
-3.20871e-06
-1.39581e-06
-3.64849e-06
-1.37834e-06
-4.16853e-06
-1.34494e-06
-4.78219e-06
-1.25582e-06
-5.473e-06
-1.01462e-06
-6.00737e-06
-6.2872e-07
-6.09035e-06
-4.86499e-06
-2.86997e-07
2.40073e-06
-6.08707e-07
3.24349e-06
-9.00989e-07
3.7529e-06
-1.13801e-06
4.19642e-06
-1.30253e-06
4.39547e-06
-1.41878e-06
4.39046e-06
-1.48781e-06
4.21391e-06
-1.52548e-06
3.93522e-06
-1.54203e-06
3.6134e-06
-1.54499e-06
3.27538e-06
-1.54109e-06
2.93882e-06
-1.53452e-06
2.61578e-06
-1.52776e-06
2.30996e-06
-1.522e-06
2.02152e-06
-1.51743e-06
1.74828e-06
-1.51371e-06
1.48703e-06
-1.51027e-06
1.23454e-06
-1.50652e-06
9.87924e-07
-1.50192e-06
7.44716e-07
-1.49602e-06
5.02821e-07
-1.48845e-06
2.60407e-07
-1.47891e-06
1.57907e-08
-1.46714e-06
-2.32677e-07
-1.45284e-06
-4.8658e-07
-1.4357e-06
-7.47395e-07
-1.41532e-06
-1.01648e-06
-1.3913e-06
-1.29492e-06
-1.36331e-06
-1.58349e-06
-1.33131e-06
-1.88277e-06
-1.29591e-06
-2.19356e-06
-1.25878e-06
-2.51812e-06
-1.22297e-06
-2.86237e-06
-1.19246e-06
-3.23922e-06
-1.16974e-06
-3.67121e-06
-1.1508e-06
-4.18747e-06
-1.12212e-06
-4.81087e-06
-1.05665e-06
-5.53847e-06
-8.60883e-07
-6.20313e-06
-5.39727e-07
-6.41151e-06
-5.40472e-06
-2.28718e-07
2.62945e-06
-4.97199e-07
3.51197e-06
-7.3998e-07
3.99568e-06
-9.27675e-07
4.38411e-06
-1.06014e-06
4.52793e-06
-1.15238e-06
4.48269e-06
-1.2081e-06
4.26962e-06
-1.23961e-06
3.96674e-06
-1.25473e-06
3.62852e-06
-1.25961e-06
3.28026e-06
-1.25944e-06
2.93865e-06
-1.25727e-06
2.61361e-06
-1.25487e-06
2.30756e-06
-1.25298e-06
2.01963e-06
-1.25164e-06
1.74694e-06
-1.25055e-06
1.48594e-06
-1.24931e-06
1.2333e-06
-1.24753e-06
9.86138e-07
-1.24487e-06
7.42056e-07
-1.24108e-06
4.99037e-07
-1.23598e-06
2.55303e-07
-1.22938e-06
9.19158e-09
-1.22113e-06
-2.40932e-07
-1.21101e-06
-4.96695e-07
-1.19873e-06
-7.59672e-07
-1.18388e-06
-1.03133e-06
-1.16593e-06
-1.31287e-06
-1.14429e-06
-1.60513e-06
-1.11853e-06
-1.90853e-06
-1.08871e-06
-2.22338e-06
-1.05586e-06
-2.55097e-06
-1.02249e-06
-2.89574e-06
-9.92638e-07
-3.26907e-06
-9.70102e-07
-3.69375e-06
-9.53621e-07
-4.20395e-06
-9.33228e-07
-4.83127e-06
-8.88006e-07
-5.5837e-06
-7.31579e-07
-6.35956e-06
-4.5301e-07
-6.69008e-06
-5.85773e-06
-1.7096e-07
2.80041e-06
-3.83703e-07
3.72471e-06
-5.76368e-07
4.18834e-06
-7.19336e-07
4.52708e-06
-8.22528e-07
4.63113e-06
-8.94155e-07
4.55432e-06
-9.39054e-07
4.31452e-06
-9.65956e-07
3.99364e-06
-9.80461e-07
3.64303e-06
-9.87357e-07
3.28716e-06
-9.90438e-07
2.94173e-06
-9.91835e-07
2.615e-06
-9.92765e-07
2.30849e-06
-9.93687e-07
2.02055e-06
-9.94605e-07
1.74786e-06
-9.95338e-07
1.48668e-06
-9.95658e-07
1.23362e-06
-9.95369e-07
9.85849e-07
-9.94331e-07
7.41018e-07
-9.92452e-07
4.97158e-07
-9.89665e-07
2.52516e-07
-9.8591e-07
5.4364e-09
-9.81112e-07
-2.4573e-07
-9.75142e-07
-5.02664e-07
-9.67756e-07
-7.67057e-07
-9.58563e-07
-1.04052e-06
-9.46992e-07
-1.32444e-06
-9.32328e-07
-1.6198e-06
-9.13867e-07
-1.92699e-06
-8.91234e-07
-2.24601e-06
-8.64887e-07
-2.57732e-06
-8.36728e-07
-2.9239e-06
-8.10495e-07
-3.2953e-06
-7.90853e-07
-3.71339e-06
-7.79269e-07
-4.21553e-06
-7.67895e-07
-4.84264e-06
-7.3588e-07
-5.61571e-06
-6.26484e-07
-6.46896e-06
-3.94943e-07
-6.92162e-06
-6.25267e-06
-1.09015e-07
2.90942e-06
-2.6887e-07
3.88456e-06
-4.12618e-07
4.33209e-06
-5.15819e-07
4.63028e-06
-5.92663e-07
4.70797e-06
-6.45779e-07
4.60744e-06
-6.81011e-07
4.34975e-06
-7.0384e-07
4.01647e-06
-7.17815e-07
3.657e-06
-7.26312e-07
3.29566e-06
-7.31879e-07
2.94729e-06
-7.35897e-07
2.61902e-06
-7.39148e-07
2.31174e-06
-7.41935e-07
2.02334e-06
-7.44305e-07
1.75023e-06
-7.46218e-07
1.48859e-06
-7.47624e-07
1.23503e-06
-7.48507e-07
9.86732e-07
-7.48879e-07
7.4139e-07
-7.48774e-07
4.97053e-07
-7.4823e-07
2.51973e-07
-7.47274e-07
4.48018e-09
-7.45903e-07
-2.471e-07
-7.4406e-07
-5.04508e-07
-7.41571e-07
-7.69546e-07
-7.38103e-07
-1.04399e-06
-7.33115e-07
-1.32943e-06
-7.25855e-07
-1.62706e-06
-7.15467e-07
-1.93737e-06
-7.01282e-07
-2.2602e-06
-6.83313e-07
-2.59529e-06
-6.62916e-07
-2.94429e-06
-6.43403e-07
-3.31481e-06
-6.29776e-07
-3.72701e-06
-6.25572e-07
-4.21974e-06
-6.2527e-07
-4.84294e-06
-6.08594e-07
-5.63239e-06
-5.32869e-07
-6.54468e-06
-3.39904e-07
-7.11458e-06
-6.59257e-06
-5.36606e-08
2.96308e-06
-1.57012e-07
3.98792e-06
-2.52046e-07
4.42712e-06
-3.19201e-07
4.69744e-06
-3.70947e-07
4.75972e-06
-4.06951e-07
4.64344e-06
-4.3308e-07
4.37588e-06
-4.51813e-07
4.0352e-06
-4.64893e-07
3.67008e-06
-4.74321e-07
3.30508e-06
-4.8153e-07
2.9545e-06
-4.87248e-07
2.62474e-06
-4.91931e-07
2.31642e-06
-4.95805e-07
2.02721e-06
-4.98992e-07
1.75342e-06
-5.01597e-07
1.49119e-06
-5.03739e-07
1.23717e-06
-5.05555e-07
9.88548e-07
-5.07186e-07
7.43021e-07
-5.0877e-07
4.98637e-07
-5.1043e-07
2.53632e-07
-5.12259e-07
6.3095e-09
-5.14316e-07
-2.45043e-07
-5.16605e-07
-5.02219e-07
-5.19027e-07
-7.67123e-07
-5.21329e-07
-1.04168e-06
-5.23048e-07
-1.32771e-06
-5.23474e-07
-1.62663e-06
-5.21706e-07
-1.93914e-06
-5.16886e-07
-2.26502e-06
-5.08677e-07
-2.6035e-06
-4.97943e-07
-2.95503e-06
-4.87523e-07
-3.32523e-06
-4.82412e-07
-3.73213e-06
-4.87385e-07
-4.21476e-06
-4.99208e-07
-4.83112e-06
-5.01021e-07
-5.63057e-06
-4.56598e-07
-6.58911e-06
-3.00286e-07
-7.27089e-06
-6.89286e-06
7.82083e-09
2.95526e-06
-4.4465e-08
4.0402e-06
-9.56322e-08
4.47829e-06
-1.30317e-07
4.73212e-06
-1.5721e-07
4.78661e-06
-1.76968e-07
4.6632e-06
-1.93755e-07
4.39267e-06
-2.07924e-07
4.04937e-06
-2.19535e-07
3.68169e-06
-2.29142e-07
3.31469e-06
-2.37198e-07
2.96256e-06
-2.43814e-07
2.63136e-06
-2.49203e-07
2.32181e-06
-2.53553e-07
2.03156e-06
-2.57062e-07
1.75692e-06
-2.59979e-07
1.49411e-06
-2.62579e-07
1.23977e-06
-2.65135e-07
9.91103e-07
-2.67901e-07
7.45788e-07
-2.71105e-07
5.01841e-07
-2.74938e-07
2.57465e-07
-2.79551e-07
1.09227e-08
-2.85052e-07
-2.39542e-07
-2.91499e-07
-4.95772e-07
-2.98864e-07
-7.59758e-07
-3.06986e-07
-1.03356e-06
-3.15509e-07
-1.31919e-06
-3.23823e-07
-1.61832e-06
-3.31073e-07
-1.93189e-06
-3.36336e-07
-2.25975e-06
-3.39021e-07
-2.60081e-06
-3.39564e-07
-2.95448e-06
-3.40307e-07
-3.32449e-06
-3.45975e-07
-3.72646e-06
-3.62033e-07
-4.19871e-06
-3.87545e-07
-4.80561e-06
-4.07796e-07
-5.61032e-06
-3.89304e-07
-6.6076e-06
-2.63442e-07
-7.39675e-06
-7.1563e-06
6.40018e-08
2.89126e-06
6.51139e-08
4.03909e-06
5.5508e-08
4.4879e-06
5.17915e-08
4.73584e-06
4.97383e-08
4.78866e-06
4.53751e-08
4.66756e-06
3.85954e-08
4.39945e-06
2.97263e-08
4.05824e-06
2.03805e-08
3.69104e-06
1.14219e-08
3.32365e-06
3.42021e-09
2.97056e-06
-3.44839e-09
2.63822e-06
-9.04526e-09
2.32741e-06
-1.34278e-08
2.03595e-06
-1.68946e-08
1.76039e-06
-1.98368e-08
1.49705e-06
-2.26714e-08
1.24261e-06
-2.57996e-08
9.94232e-07
-2.95827e-08
7.49571e-07
-3.43308e-08
5.0659e-07
-4.03005e-08
2.63435e-07
-4.7696e-08
1.83183e-08
-5.667e-08
-2.30568e-07
-6.73254e-08
-4.85117e-07
-7.96931e-08
-7.4739e-07
-9.36943e-08
-1.01956e-06
-1.09093e-07
-1.30379e-06
-1.25427e-07
-1.60198e-06
-1.41978e-07
-1.91534e-06
-1.5786e-07
-2.24387e-06
-1.72338e-07
-2.58633e-06
-1.85401e-07
-2.94142e-06
-1.98953e-07
-3.31094e-06
-2.17287e-07
-3.70812e-06
-2.46172e-07
-4.16982e-06
-2.86774e-07
-4.765e-06
-3.26374e-07
-5.57072e-06
-3.3418e-07
-6.59979e-06
-2.35746e-07
-7.49519e-06
-7.39205e-06
1.21042e-07
2.77022e-06
1.72768e-07
3.98736e-06
2.03705e-07
4.45696e-06
2.31728e-07
4.70781e-06
2.55322e-07
4.76507e-06
2.66451e-07
4.65643e-06
2.67721e-07
4.39818e-06
2.63832e-07
4.06213e-06
2.57077e-07
3.69779e-06
2.49292e-07
3.33143e-06
2.41729e-07
2.97812e-06
2.35236e-07
2.64472e-06
2.3007e-07
2.33257e-06
2.26121e-07
2.0399e-06
2.23046e-07
1.76347e-06
2.20354e-07
1.49975e-06
2.17508e-07
1.24545e-06
2.13988e-07
9.97752e-07
2.09331e-07
7.54228e-07
2.03146e-07
5.12775e-07
1.95108e-07
2.71473e-07
1.84959e-07
2.84668e-08
1.72503e-07
-2.18112e-07
1.57595e-07
-4.70209e-07
1.40152e-07
-7.29947e-07
1.2018e-07
-9.99588e-07
9.77964e-08
-1.28141e-06
7.32953e-08
-1.57748e-06
4.72323e-08
-1.88928e-06
2.04011e-08
-2.21704e-06
-6.45026e-09
-2.55948e-06
-3.33149e-08
-2.91456e-06
-6.12247e-08
-3.28303e-06
-9.39737e-08
-3.67538e-06
-1.37369e-07
-4.12642e-06
-1.93978e-07
-4.7084e-06
-2.52131e-07
-5.51257e-06
-2.84162e-07
-6.56776e-06
-2.10744e-07
-7.56861e-06
-7.60279e-06
1.78015e-07
2.5922e-06
2.79039e-07
3.88634e-06
3.47523e-07
4.38848e-06
4.04825e-07
4.65051e-06
4.52768e-07
4.71713e-06
4.81633e-07
4.62757e-06
4.92635e-07
4.38718e-06
4.95161e-07
4.0596e-06
4.92156e-07
3.7008e-06
4.86474e-07
3.33712e-06
4.80189e-07
2.98441e-06
4.74561e-07
2.65035e-06
4.70139e-07
2.33699e-06
4.66912e-07
2.04312e-06
4.64492e-07
1.76589e-06
4.62289e-07
1.50195e-06
4.59648e-07
1.24809e-06
4.55935e-07
1.00147e-06
4.50582e-07
7.5958e-07
4.43111e-07
5.20246e-07
4.33126e-07
2.81458e-07
4.20305e-07
4.12873e-08
4.04402e-07
-2.02209e-07
3.85236e-07
-4.51043e-07
3.6267e-07
-7.07381e-07
3.36623e-07
-9.73542e-07
3.07089e-07
-1.25187e-06
2.742e-07
-1.54459e-06
2.38302e-07
-1.85338e-06
1.99952e-07
-2.17869e-06
1.59838e-07
-2.51937e-06
1.1848e-07
-2.8732e-06
7.50362e-08
-3.23958e-06
2.6316e-08
-3.62665e-06
-3.34311e-08
-4.06668e-06
-1.07677e-07
-4.63415e-06
-1.85073e-07
-5.43518e-06
-2.38088e-07
-6.51474e-06
-1.92082e-07
-7.61461e-06
-7.79487e-06
2.32816e-07
2.35939e-06
3.82908e-07
3.73625e-06
4.88008e-07
4.28338e-06
5.74047e-07
4.56447e-06
6.43397e-07
4.64778e-06
6.91843e-07
4.57912e-06
7.14715e-07
4.36431e-06
7.24979e-07
4.04934e-06
7.26929e-07
3.69885e-06
7.24385e-07
3.33966e-06
7.2018e-07
2.98861e-06
7.16076e-07
2.65445e-06
7.12906e-07
2.34016e-06
7.10775e-07
2.04525e-06
7.09302e-07
1.76736e-06
7.07835e-07
1.50341e-06
7.05625e-07
1.2503e-06
7.01931e-07
1.00516e-06
6.96084e-07
7.65427e-07
6.8751e-07
5.2882e-07
6.75733e-07
2.93235e-07
6.60367e-07
5.66534e-08
6.41106e-07
-1.82949e-07
6.17717e-07
-4.27653e-07
5.89992e-07
-6.79656e-07
5.57758e-07
-9.41308e-07
5.20907e-07
-1.21502e-06
4.79421e-07
-1.50311e-06
4.33396e-07
-1.80735e-06
3.83154e-07
-2.12845e-06
3.29271e-07
-2.46548e-06
2.72302e-07
-2.81623e-06
2.11968e-07
-3.17925e-06
1.45747e-07
-3.56043e-06
6.80893e-08
-3.98902e-06
-2.55168e-08
-4.54054e-06
-1.2404e-07
-5.33665e-06
-1.97026e-07
-6.44176e-06
-1.75066e-07
-7.63657e-06
-7.96994e-06
2.85324e-07
2.07406e-06
4.8304e-07
3.53853e-06
6.23705e-07
4.14271e-06
7.38038e-07
4.45014e-06
8.28088e-07
4.55773e-06
8.96652e-07
4.51056e-06
9.34295e-07
4.32666e-06
9.53851e-07
4.02978e-06
9.62206e-07
3.69049e-06
9.64142e-07
3.33772e-06
9.63128e-07
2.98963e-06
9.61407e-07
2.65617e-06
9.60124e-07
2.34145e-06
9.59561e-07
2.04582e-06
9.59401e-07
1.76752e-06
9.58977e-07
1.50384e-06
9.57471e-07
1.25181e-06
9.54051e-07
1.00858e-06
9.47948e-07
7.7153e-07
9.38494e-07
5.38274e-07
9.25123e-07
3.06606e-07
9.07373e-07
7.44039e-08
8.84869e-07
-1.60445e-07
8.573e-07
-4.00084e-07
8.24388e-07
-6.46744e-07
7.85883e-07
-9.02803e-07
7.41549e-07
-1.17069e-06
6.91165e-07
-1.45272e-06
6.34599e-07
-1.75079e-06
5.71955e-07
-2.06581e-06
5.03575e-07
-2.3971e-06
4.30018e-07
-2.74267e-06
3.5149e-07
-3.10072e-06
2.66242e-07
-3.47519e-06
1.69237e-07
-3.89202e-06
5.52472e-08
-4.42655e-06
-6.61203e-08
-5.21528e-06
-1.60004e-07
-6.34788e-06
-1.61945e-07
-7.63463e-06
-8.13188e-06
3.33291e-07
1.74077e-06
5.76517e-07
3.29531e-06
7.51694e-07
3.96753e-06
8.92636e-07
4.3092e-06
1.00583e-06
4.44453e-06
1.09423e-06
4.42216e-06
1.15004e-06
4.27085e-06
1.18141e-06
3.99841e-06
1.1982e-06
3.6737e-06
1.20639e-06
3.32954e-06
1.21006e-06
2.98595e-06
1.21192e-06
2.65431e-06
1.21345e-06
2.33992e-06
1.21515e-06
2.04411e-06
1.21684e-06
1.76583e-06
1.21789e-06
1.5028e-06
1.21744e-06
1.25226e-06
1.21461e-06
1.01141e-06
1.20854e-06
7.77597e-07
1.19848e-06
5.48341e-07
1.18375e-06
3.21332e-07
1.16382e-06
9.43368e-08
1.13823e-06
-1.34853e-07
1.10656e-06
-3.68419e-07
1.06845e-06
-6.08635e-07
1.02355e-06
-8.57901e-07
9.71484e-07
-1.11862e-06
9.11862e-07
-1.3931e-06
8.44302e-07
-1.68323e-06
7.68567e-07
-1.99007e-06
6.84759e-07
-2.3133e-06
5.93483e-07
-2.6514e-06
4.95356e-07
-3.00259e-06
3.89405e-07
-3.36923e-06
2.71452e-07
-3.77406e-06
1.37104e-07
-4.29221e-06
-1.69531e-09
-5.07648e-06
-1.18847e-07
-6.23072e-06
-1.45571e-07
-7.60791e-06
-8.27745e-06
3.71879e-07
1.36889e-06
6.57685e-07
3.0095e-06
8.67439e-07
3.75778e-06
1.0354e-06
4.14124e-06
1.17275e-06
4.30719e-06
1.281e-06
4.3139e-06
1.3582e-06
4.19366e-06
1.40541e-06
3.9512e-06
1.43384e-06
3.64527e-06
1.45087e-06
3.31251e-06
1.46139e-06
2.97543e-06
1.4686e-06
2.6471e-06
1.47433e-06
2.33419e-06
1.47937e-06
2.03907e-06
1.48372e-06
1.76148e-06
1.48686e-06
1.49966e-06
1.48797e-06
1.25114e-06
1.48615e-06
1.01323e-06
1.48048e-06
7.83269e-07
1.47012e-06
5.58697e-07
1.45432e-06
3.37131e-07
1.43245e-06
1.16211e-07
1.40395e-06
-1.06354e-07
1.36829e-06
-3.32762e-07
1.32499e-06
-5.65336e-07
1.27357e-06
-8.06481e-07
1.2135e-06
-1.05855e-06
1.14417e-06
-1.32377e-06
1.06494e-06
-1.604e-06
9.75308e-07
-1.90043e-06
8.75103e-07
-2.21309e-06
7.64814e-07
-2.54111e-06
6.45402e-07
-2.88318e-06
5.16873e-07
-3.24071e-06
3.75698e-07
-3.63289e-06
2.1705e-07
-4.13356e-06
4.96244e-08
-4.90906e-06
-8.79115e-08
-6.09319e-06
-1.36414e-07
-7.5594e-06
-8.41387e-06
3.91783e-07
9.7711e-07
7.1769e-07
2.68359e-06
9.65156e-07
3.51031e-06
1.1614e-06
3.945e-06
1.32299e-06
4.14559e-06
1.45409e-06
4.1828e-06
1.55464e-06
4.09311e-06
1.62222e-06
3.88363e-06
1.66665e-06
3.60084e-06
1.69622e-06
3.28294e-06
1.71666e-06
2.95499e-06
1.73174e-06
2.63202e-06
1.74372e-06
2.32221e-06
1.75372e-06
2.02908e-06
1.76197e-06
1.75323e-06
1.76815e-06
1.49348e-06
1.77156e-06
1.24773e-06
1.77132e-06
1.01347e-06
1.76652e-06
7.88071e-07
1.75627e-06
5.68951e-07
1.73972e-06
3.53674e-07
1.71618e-06
1.39758e-07
1.68496e-06
-7.5134e-08
1.6454e-06
-2.93204e-07
1.59689e-06
-5.16823e-07
1.53877e-06
-7.48367e-07
1.47032e-06
-9.90095e-07
1.3907e-06
-1.24416e-06
1.29902e-06
-1.51232e-06
1.19446e-06
-1.79588e-06
1.07663e-06
-2.09526e-06
9.4593e-07
-2.41041e-06
8.03483e-07
-2.74073e-06
6.50219e-07
-3.08744e-06
4.83588e-07
-3.46626e-06
2.98889e-07
-3.94886e-06
1.05305e-07
-4.71547e-06
-5.56834e-08
-5.9322e-06
-1.23755e-07
-7.49133e-06
-8.53762e-06
3.75314e-07
6.01796e-07
7.46575e-07
2.31233e-06
1.03648e-06
3.22041e-06
1.26347e-06
3.71801e-06
1.45019e-06
3.95887e-06
1.60684e-06
4.02615e-06
1.73342e-06
3.96652e-06
1.82634e-06
3.79071e-06
1.89226e-06
3.53491e-06
1.93937e-06
3.23583e-06
1.97402e-06
2.92033e-06
2.00056e-06
2.60548e-06
2.02173e-06
2.30104e-06
2.03902e-06
2.01178e-06
2.05304e-06
1.73921e-06
2.06369e-06
1.48282e-06
2.07049e-06
1.24093e-06
2.07268e-06
1.01128e-06
2.06939e-06
7.91357e-07
2.05974e-06
5.78603e-07
2.04284e-06
3.70573e-07
2.01792e-06
1.64682e-07
1.98413e-06
-4.13422e-08
1.94073e-06
-2.49803e-07
1.88691e-06
-4.63007e-07
1.82183e-06
-6.83286e-07
1.74451e-06
-9.12773e-07
1.65387e-06
-1.15352e-06
1.54873e-06
-1.40718e-06
1.42806e-06
-1.67521e-06
1.2912e-06
-1.9584e-06
1.1385e-06
-2.25771e-06
9.71164e-07
-2.5734e-06
7.90925e-07
-2.9072e-06
5.96382e-07
-3.27171e-06
3.83643e-07
-3.73612e-06
1.61473e-07
-4.4933e-06
-3.00938e-08
-5.74063e-06
-1.18696e-07
-7.40273e-06
-8.65632e-06
3.0381e-07
2.97986e-07
7.37752e-07
1.87839e-06
1.07111e-06
2.88705e-06
1.33218e-06
3.45693e-06
1.5469e-06
3.74416e-06
1.7312e-06
3.84185e-06
1.88731e-06
3.81042e-06
2.01074e-06
3.66728e-06
2.10456e-06
3.44109e-06
2.17546e-06
3.16493e-06
2.22988e-06
2.86591e-06
2.27265e-06
2.56272e-06
2.307e-06
2.2667e-06
2.33489e-06
1.9839e-06
2.3573e-06
1.7168e-06
2.37452e-06
1.4656e-06
2.38632e-06
1.22913e-06
2.39215e-06
1.00545e-06
2.3913e-06
7.92209e-07
2.38291e-06
5.86987e-07
2.36614e-06
3.87343e-07
2.34019e-06
1.90637e-07
2.30391e-06
-5.06593e-09
2.25668e-06
-2.02571e-07
2.19737e-06
-4.03697e-07
2.12492e-06
-6.10839e-07
2.0381e-06
-8.25952e-07
1.93556e-06
-1.05098e-06
1.81585e-06
-1.28747e-06
1.67775e-06
-1.5371e-06
1.52041e-06
-1.80106e-06
1.34415e-06