/*--------------------------------*- C++ -*----------------------------------*\
  =========                 |
  \\      /  F ield         | OpenFOAM: The Open Source CFD Toolbox
   \\    /   O peration     | Website:  https://openfoam.org
    \\  /    A nd           | Version:  12
     \\/     M anipulation  |
\*---------------------------------------------------------------------------*/
FoamFile
{
    format      ascii;
    class       volVectorField;
    location    "7";
    object      U;
}
// * * * * * * * * * * * * * * * * * * * * * * * * * * * * * * * * * * * * * //

dimensions      [0 1 -1 0 0 0 0];

internalField   nonuniform List<vector> 
1600
(
(0.00126363 -0.00108873 0)
(0.00640409 -0.0016735 0)
(0.0112584 -0.00136065 0)
(0.0141842 -0.000229617 0)
(0.0144738 0.000344766 0)
(0.0139136 0.000147936 0)
(0.0131613 -0.00063769 0)
(0.013004 -0.00120253 0)
(0.0126198 -0.00120744 0)
(0.0114281 -0.000907377 0)
(0.00876707 -0.00072975 0)
(0.00216185 -4.17428e-05 0)
(-0.00871222 0.00192314 0)
(-0.0208921 0.00756942 0)
(-0.0454868 0.013336 0)
(-0.0709945 0.0136253 0)
(-0.0933486 0.0124864 0)
(-0.112998 0.010888 0)
(-0.129109 0.00916184 0)
(-0.142444 0.0074874 0)
(-0.152644 0.00585097 0)
(-0.160216 0.00428438 0)
(-0.164595 0.00279974 0)
(-0.166403 0.00138268 0)
(-0.165707 -0.00089401 0)
(-0.161126 -0.00250342 0)
(-0.153794 -0.00477638 0)
(-0.142242 -0.00663456 0)
(-0.127322 -0.00891451 0)
(-0.108644 -0.0111677 0)
(-0.0866666 -0.0134514 0)
(-0.061852 -0.0149694 0)
(-0.0355218 -0.0152815 0)
(-0.00853332 -0.0138773 0)
(0.0132561 -0.0117867 0)
(0.0295119 -0.00461658 0)
(0.0311337 0.00316748 0)
(0.0247239 0.00523921 0)
(0.0118756 0.004524 0)
(0.00249666 0.00308346 0)
(0.00225258 -0.00634829 0)
(0.0109114 -0.00934393 0)
(0.0165098 -0.00678059 0)
(0.0196351 -0.00262643 0)
(0.0198927 0.000499988 0)
(0.0178248 0.00163023 0)
(0.0141921 0.0014459 0)
(0.00922944 0.00170477 0)
(0.00153623 0.00319099 0)
(-0.0106563 0.005966 0)
(-0.0281398 0.0110902 0)
(-0.0546322 0.0200428 0)
(-0.0857337 0.028944 0)
(-0.113177 0.0350786 0)
(-0.135706 0.0352744 0)
(-0.155018 0.0326822 0)
(-0.171066 0.0288102 0)
(-0.184479 0.0244356 0)
(-0.195142 0.0200433 0)
(-0.203467 0.0157309 0)
(-0.209337 0.0115669 0)
(-0.213011 0.00746595 0)
(-0.214386 0.00339278 0)
(-0.213579 -0.000826869 0)
(-0.210338 -0.00541693 0)
(-0.204672 -0.010203 0)
(-0.196268 -0.0153155 0)
(-0.184912 -0.0207278 0)
(-0.170285 -0.0264291 0)
(-0.151698 -0.0319503 0)
(-0.129889 -0.0371097 0)
(-0.105319 -0.0411752 0)
(-0.078214 -0.0422421 0)
(-0.0500199 -0.0391923 0)
(-0.022842 -0.0308129 0)
(0.000506129 -0.0146542 0)
(0.0165598 0.00372385 0)
(0.0167208 0.0115674 0)
(0.00997762 0.0139912 0)
(0.00154834 0.0107466 0)
(0.00353967 -0.0145898 0)
(0.0119044 -0.0167104 0)
(0.0151449 -0.0109625 0)
(0.0158937 -0.00328828 0)
(0.0137975 0.0023584 0)
(0.00892913 0.00541223 0)
(0.000320777 0.00756994 0)
(-0.0129795 0.0118893 0)
(-0.0326723 0.0202803 0)
(-0.0594249 0.0318895 0)
(-0.0896821 0.0433326 0)
(-0.117445 0.0504551 0)
(-0.14136 0.0536655 0)
(-0.160206 0.0535032 0)
(-0.175655 0.050358 0)
(-0.188105 0.045581 0)
(-0.198204 0.03976 0)
(-0.206327 0.033606 0)
(-0.212731 0.0273994 0)
(-0.217567 0.0213246 0)
(-0.221039 0.0150774 0)
(-0.222947 0.009197 0)
(-0.223308 0.00322259 0)
(-0.222018 -0.00279704 0)
(-0.219076 -0.00913885 0)
(-0.214445 -0.0158962 0)
(-0.208005 -0.0234047 0)
(-0.199472 -0.0316399 0)
(-0.188743 -0.040774 0)
(-0.175425 -0.0501457 0)
(-0.159044 -0.0591991 0)
(-0.139087 -0.0664262 0)
(-0.115769 -0.0696919 0)
(-0.0899382 -0.0676098 0)
(-0.0621671 -0.0570871 0)
(-0.0338098 -0.0364641 0)
(-0.00663893 -0.00635781 0)
(0.00161106 0.0115981 0)
(0.00185684 0.0183381 0)
(-0.000220222 0.0143474 0)
(0.00407394 -0.0233567 0)
(0.00866111 -0.0211692 0)
(0.00880668 -0.0113005 0)
(0.0057637 -0.000565501 0)
(-0.00024865 0.00783644 0)
(-0.0105736 0.0150482 0)
(-0.0266395 0.0234571 0)
(-0.0488583 0.0348301 0)
(-0.075914 0.0482895 0)
(-0.104986 0.0605879 0)
(-0.131245 0.0687136 0)
(-0.151551 0.0716785 0)
(-0.167598 0.0710366 0)
(-0.179666 0.0673488 0)
(-0.189471 0.0617926 0)
(-0.197056 0.0551103 0)
(-0.203204 0.0478004 0)
(-0.208264 0.0400079 0)
(-0.212536 0.0321732 0)
(-0.215764 0.0244716 0)
(-0.217867 0.0172001 0)
(-0.218816 0.00983609 0)
(-0.218674 0.00249585 0)
(-0.217456 -0.00503499 0)
(-0.215141 -0.0128099 0)
(-0.211611 -0.0210634 0)
(-0.206796 -0.0299461 0)
(-0.200559 -0.0395917 0)
(-0.192742 -0.0500427 0)
(-0.18328 -0.0616334 0)
(-0.172047 -0.0738003 0)
(-0.158734 -0.0856289 0)
(-0.142675 -0.0945609 0)
(-0.121761 -0.0965063 0)
(-0.0957734 -0.0876383 0)
(-0.065581 -0.0656301 0)
(-0.0295404 -0.0276325 0)
(-0.00739934 0.00424934 0)
(-0.0022164 0.0162049 0)
(-0.000253803 0.0138824 0)
(0.00240763 -0.0278472 0)
(0.00313 -0.0211193 0)
(-0.00121977 -0.00703561 0)
(-0.00837329 0.00662836 0)
(-0.019386 0.0192118 0)
(-0.0354134 0.0318623 0)
(-0.0570824 0.046073 0)
(-0.0830067 0.0615043 0)
(-0.109897 0.0753086 0)
(-0.133924 0.0844365 0)
(-0.152054 0.087597 0)
(-0.16568 0.086625 0)
(-0.176127 0.0827066 0)
(-0.183829 0.0765569 0)
(-0.189968 0.0691508 0)
(-0.194846 0.0607036 0)
(-0.198976 0.0519645 0)
(-0.202028 0.0433069 0)
(-0.203947 0.0348119 0)
(-0.204932 0.0264176 0)
(-0.205303 0.0181976 0)
(-0.205053 0.0100202 0)
(-0.204282 0.00185497 0)
(-0.202952 -0.00650523 0)
(-0.200943 -0.0151878 0)
(-0.198262 -0.0244322 0)
(-0.19489 -0.0344202 0)
(-0.190776 -0.0453217 0)
(-0.185827 -0.0571982 0)
(-0.179897 -0.0699506 0)
(-0.172731 -0.0832748 0)
(-0.163913 -0.096442 0)
(-0.153231 -0.108986 0)
(-0.139596 -0.11757 0)
(-0.12031 -0.116676 0)
(-0.0927443 -0.0998744 0)
(-0.057208 -0.0644299 0)
(-0.0172209 -0.0139018 0)
(-0.00217476 0.0107075 0)
(0.000758908 0.0129799 0)
(-0.000517618 -0.0285937 0)
(-0.00443274 -0.0160414 0)
(-0.0128047 0.00120245 0)
(-0.0241156 0.0185272 0)
(-0.0395937 0.0356593 0)
(-0.0596891 0.0531622 0)
(-0.0835282 0.0708437 0)
(-0.108333 0.0865706 0)
(-0.130575 0.0974539 0)
(-0.147316 0.101594 0)
(-0.159282 0.100615 0)
(-0.16837 0.0965349 0)
(-0.174913 0.0900558 0)
(-0.179702 0.0820691 0)
(-0.183271 0.0731517 0)
(-0.185456 0.0638635 0)
(-0.186802 0.0544134 0)
(-0.18735 0.0449974 0)
(-0.187544 0.0357618 0)
(-0.187478 0.0267852 0)
(-0.186997 0.0180599 0)
(-0.186191 0.00945209 0)
(-0.185035 0.000871418 0)
(-0.183521 -0.0078613 0)
(-0.181628 -0.0169121 0)
(-0.179411 -0.0265057 0)
(-0.176894 -0.036849 0)
(-0.174109 -0.0481645 0)
(-0.171057 -0.0606311 0)
(-0.1677 -0.0743223 0)
(-0.163889 -0.0890501 0)
(-0.159266 -0.104211 0)
(-0.153135 -0.118532 0)
(-0.144347 -0.130188 0)
(-0.131462 -0.136633 0)
(-0.111545 -0.130634 0)
(-0.0816802 -0.104589 0)
(-0.0384192 -0.0523947 0)
(-0.00512306 -0.00211115 0)
(0.00164186 0.0122467 0)
(-0.00370985 -0.0233122 0)
(-0.0120298 -0.00699267 0)
(-0.0239351 0.0133272 0)
(-0.0388749 0.0342771 0)
(-0.0575861 0.0553887 0)
(-0.079279 0.0758311 0)
(-0.102071 0.0940217 0)
(-0.123016 0.107357 0)
(-0.13899 0.11354 0)
(-0.149871 0.113286 0)
(-0.157757 0.10934 0)
(-0.163266 0.102772 0)
(-0.166829 0.0944203 0)
(-0.169021 0.08505 0)
(-0.170111 0.07508 0)
(-0.17048 0.064921 0)
(-0.170411 0.054829 0)
(-0.170023 0.0449839 0)
(-0.169464 0.0354526 0)
(-0.168691 0.0262123 0)
(-0.167709 0.0172118 0)
(-0.16653 0.00834148 0)
(-0.165141 -0.000506695 0)
(-0.163538 -0.00947729 0)
(-0.161729 -0.0187374 0)
(-0.159763 -0.0284755 0)
(-0.157695 -0.0388857 0)
(-0.155595 -0.0501761 0)
(-0.153529 -0.0625498 0)
(-0.151535 -0.0761729 0)
(-0.149584 -0.0910947 0)
(-0.147485 -0.107086 0)
(-0.144685 -0.123401 0)
(-0.140061 -0.138336 0)
(-0.131892 -0.149088 0)
(-0.118186 -0.151635 0)
(-0.0965729 -0.138307 0)
(-0.063082 -0.0986277 0)
(-0.0146404 -0.0242056 0)
(0.00259906 0.011121 0)
(-0.00654391 -0.0140428 0)
(-0.0183334 0.00605428 0)
(-0.0330318 0.0287382 0)
(-0.0508102 0.0526939 0)
(-0.0708852 0.0761516 0)
(-0.091984 0.0972054 0)
(-0.11199 0.11366 0)
(-0.127916 0.122948 0)
(-0.138401 0.124399 0)
(-0.145519 0.121042 0)
(-0.150337 0.114675 0)
(-0.153179 0.10616 0)
(-0.154589 0.0963693 0)
(-0.155024 0.085912 0)
(-0.154793 0.0752043 0)
(-0.154219 0.0645854 0)
(-0.153449 0.0542258 0)
(-0.152565 0.0442205 0)
(-0.151604 0.034561 0)
(-0.150538 0.0251956 0)
(-0.149375 0.0160496 0)
(-0.148085 0.00701997 0)
(-0.146661 -0.00199522 0)
(-0.145086 -0.0111267 0)
(-0.143376 -0.0205231 0)
(-0.141572 -0.0303453 0)
(-0.13974 -0.040769 0)
(-0.137972 -0.0519867 0)
(-0.13637 -0.0642006 0)
(-0.13503 -0.0775999 0)
(-0.133991 -0.0923081 0)
(-0.133165 -0.108286 0)
(-0.13218 -0.125161 0)
(-0.130132 -0.141966 0)
(-0.125484 -0.156606 0)
(-0.116322 -0.1652 0)
(-0.100772 -0.161653 0)
(-0.0757123 -0.136211 0)
(-0.033126 -0.0681481 0)
(0.000281518 6.48103e-05 0)
(-0.00827377 -0.00101824 0)
(-0.0229329 0.0221481 0)
(-0.0395367 0.0463686 0)
(-0.0585861 0.0719174 0)
(-0.0785428 0.0959975 0)
(-0.0979048 0.116025 0)
(-0.114383 0.129322 0)
(-0.125218 0.13366 0)
(-0.132238 0.13166 0)
(-0.136735 0.125838 0)
(-0.139336 0.117497 0)
(-0.140398 0.107503 0)
(-0.140489 0.0966785 0)
(-0.139959 0.085545 0)
(-0.139095 0.0744638 0)
(-0.138105 0.0636616 0)
(-0.137065 0.0532263 0)
(-0.136023 0.0431809 0)
(-0.134976 0.0334785 0)
(-0.1339 0.0240548 0)
(-0.132771 0.0148268 0)
(-0.131548 0.00569066 0)
(-0.130207 -0.00345195 0)
(-0.128727 -0.0127106 0)
(-0.127117 -0.0222107 0)
(-0.125409 -0.032081 0)
(-0.123665 -0.0424682 0)
(-0.121982 -0.0535405 0)
(-0.120482 -0.0654943 0)
(-0.1193 -0.0785501 0)
(-0.118541 -0.0929214 0)
(-0.118213 -0.108733 0)
(-0.118108 -0.12588 0)
(-0.117584 -0.143798 0)
(-0.115272 -0.161032 0)
(-0.109314 -0.174402 0)
(-0.0982654 -0.177961 0)
(-0.0796267 -0.164084 0)
(-0.0499294 -0.114664 0)
(-0.0070375 -0.0150055 0)
(-0.00926459 0.0143282 0)
(-0.0255966 0.0398711 0)
(-0.0429866 0.0648338 0)
(-0.062264 0.0908002 0)
(-0.0812172 0.114402 0)
(-0.0984025 0.13218 0)
(-0.110226 0.140536 0)
(-0.117984 0.141136 0)
(-0.122639 0.136392 0)
(-0.125333 0.128551 0)
(-0.126475 0.118659 0)
(-0.126499 0.107604 0)
(-0.125906 0.0961205 0)
(-0.124957 0.0846285 0)
(-0.123889 0.0734032 0)
(-0.122818 0.062572 0)
(-0.121789 0.0521592 0)
(-0.120821 0.0421401 0)
(-0.119886 0.0324447 0)
(-0.118949 0.0229944 0)
(-0.117967 0.0136988 0)
(-0.116898 0.00446343 0)
(-0.115705 -0.0048093 0)
(-0.11437 -0.0142099 0)
(-0.112886 -0.023839 0)
(-0.111277 -0.0337987 0)
(-0.109589 -0.0442009 0)
(-0.107905 -0.0551781 0)
(-0.106341 -0.0668958 0)
(-0.105041 -0.0795653 0)
(-0.104149 -0.0934432 0)
(-0.103751 -0.108792 0)
(-0.103788 -0.125771 0)
(-0.103882 -0.144244 0)
(-0.102962 -0.163395 0)
(-0.0990807 -0.180696 0)
(-0.0910676 -0.189943 0)
(-0.0766949 -0.185112 0)
(-0.0539305 -0.14977 0)
(-0.0157923 -0.0429458 0)
(-0.00969793 0.0308442 0)
(-0.0265562 0.0583202 0)
(-0.0437523 0.083267 0)
(-0.0623866 0.108807 0)
(-0.0799217 0.130858 0)
(-0.0937156 0.144647 0)
(-0.102191 0.148842 0)
(-0.1081 0.146411 0)
(-0.111071 0.139408 0)
(-0.112636 0.12993 0)
(-0.112912 0.118861 0)
(-0.11244 0.107086 0)
(-0.111589 0.0952139 0)
(-0.11057 0.0835669 0)
(-0.109552 0.0723306 0)
(-0.108601 0.0615548 0)
(-0.10774 0.0512167 0)
(-0.106956 0.0412547 0)
(-0.106211 0.0315821 0)
(-0.105462 0.0221098 0)
(-0.104661 0.0127467 0)
(-0.103767 0.0034057 0)
(-0.102746 -0.00600333 0)
(-0.101575 -0.0155579 0)
(-0.100245 -0.0253383 0)
(-0.0987632 -0.0354257 0)
(-0.0971605 -0.0459033 0)
(-0.0954963 -0.0568701 0)
(-0.0938643 -0.0684565 0)
(-0.0923947 -0.080848 0)
(-0.091239 -0.0943069 0)
(-0.0905301 -0.10917 0)
(-0.0903112 -0.125783 0)
(-0.0904172 -0.14432 0)
(-0.0901463 -0.16454 0)
(-0.0877038 -0.184992 0)
(-0.0814904 -0.199296 0)
(-0.0701786 -0.20155 0)
(-0.0503666 -0.178871 0)
(-0.0188039 -0.0922949 0)
(-0.0094595 0.047306 0)
(-0.0259388 0.0764598 0)
(-0.0422693 0.100815 0)
(-0.0595934 0.125174 0)
(-0.0753521 0.145019 0)
(-0.0855916 0.154229 0)
(-0.092439 0.155287 0)
(-0.0966803 0.150162 0)
(-0.098626 0.141332 0)
(-0.0995145 0.130539 0)
(-0.0993639 0.118602 0)
(-0.0987453 0.106354 0)
(-0.0978997 0.0942728 0)
(-0.0970037 0.0825913 0)
(-0.0961703 0.0714145 0)
(-0.0954319 0.0607319 0)
(-0.0947892 0.050482 0)
(-0.0942133 0.0405767 0)
(-0.0936619 0.0309188 0)
(-0.0930928 0.0214149 0)
(-0.0924621 0.0119772 0)
(-0.0917331 0.0025255 0)
(-0.0908794 -0.00702215 0)
(-0.0898776 -0.0167349 0)
(-0.0887144 -0.0266788 0)
(-0.0873894 -0.0369199 0)
(-0.0859151 -0.0475199 0)
(-0.0843261 -0.0585491 0)
(-0.0826861 -0.0701016 0)
(-0.0810962 -0.0823249 0)
(-0.0796943 -0.0954607 0)
(-0.078632 -0.109878 0)
(-0.078018 -0.126052 0)
(-0.0778207 -0.144415 0)
(-0.0776736 -0.165112 0)
(-0.0762062 -0.187532 0)
(-0.0709994 -0.207299 0)
(-0.0623023 -0.214472 0)
(-0.0452105 -0.201307 0)
(-0.0158238 -0.125928 0)
(-0.00872525 0.0630994 0)
(-0.0241181 0.093695 0)
(-0.0391327 0.117116 0)
(-0.055041 0.140024 0)
(-0.068105 0.156347 0)
(-0.0758843 0.161909 0)
(-0.0815993 0.160237 0)
(-0.0846129 0.152908 0)
(-0.0859892 0.142596 0)
(-0.0865048 0.130764 0)
(-0.0862218 0.118199 0)
(-0.0856562 0.105648 0)
(-0.0849575 0.0934682 0)
(-0.0842732 0.0818153 0)
(-0.0836697 0.0707242 0)
(-0.0831583 0.060137 0)
(-0.0827243 0.0499621 0)
(-0.0823336 0.040095 0)
(-0.081947 0.0304341 0)
(-0.0815281 0.0208866 0)
(-0.0810417 0.0113695 0)
(-0.0804588 0.00180799 0)
(-0.0797594 -0.00787247 0)
(-0.0789232 -0.0177364 0)
(-0.0779361 -0.0278425 0)
(-0.0767906 -0.0382472 0)
(-0.0754858 -0.0489995 0)
(-0.0740347 -0.0601494 0)
(-0.0724714 -0.0717609 0)
(-0.070863 -0.083942 0)
(-0.0693181 -0.0968947 0)
(-0.0679832 -0.110978 0)
(-0.067004 -0.12674 0)
(-0.0664393 -0.14483 0)
(-0.0661137 -0.165703 0)
(-0.065104 -0.189258 0)
(-0.0609459 -0.21361 0)
(-0.0537022 -0.225882 0)
(-0.0395604 -0.221521 0)
(-0.0139571 -0.159027 0)
(-0.00761359 0.0774655 0)
(-0.0215208 0.109484 0)
(-0.0348989 0.131768 0)
(-0.0490732 0.152805 0)
(-0.0593526 0.165358 0)
(-0.0655178 0.168211 0)
(-0.0703222 0.164122 0)
(-0.0724777 0.155003 0)
(-0.0735622 0.143492 0)
(-0.0739037 0.130849 0)
(-0.0736598 0.117835 0)
(-0.0732429 0.105091 0)
(-0.0727492 0.0928731 0)
(-0.0722944 0.0812717 0)
(-0.0719121 0.0702622 0)
(-0.0716008 0.0597512 0)
(-0.0713392 0.049626 0)
(-0.0710954 0.0397738 0)
(-0.0708377 0.0300929 0)
(-0.0705382 0.0204938 0)
(-0.0701716 0.0108981 0)
(-0.0697169 0.00123513 0)
(-0.0691598 -0.00856468 0)
(-0.0684845 -0.0185639 0)
(-0.0676771 -0.0288186 0)
(-0.0667258 -0.0393812 0)
(-0.0656203 -0.0502946 0)
(-0.0643565 -0.061596 0)
(-0.0629445 -0.0733271 0)
(-0.0614196 -0.0855607 0)
(-0.0598575 -0.098453 0)
(-0.0583827 -0.112324 0)
(-0.0571522 -0.127742 0)
(-0.0562857 -0.145509 0)
(-0.0557258 -0.166392 0)
(-0.0549391 -0.190757 0)
(-0.0519994 -0.217533 0)
(-0.0452791 -0.235954 0)
(-0.0344055 -0.236944 0)
(-0.0114382 -0.184079 0)
(-0.00639099 0.0901437 0)
(-0.0183924 0.123447 0)
(-0.0299255 0.144442 0)
(-0.0420986 0.163395 0)
(-0.0499144 0.172672 0)
(-0.0553095 0.173412 0)
(-0.0589959 0.167221 0)
(-0.0606327 0.156672 0)
(-0.0615561 0.144201 0)
(-0.0618446 0.130934 0)
(-0.0617198 0.117598 0)
(-0.0614819 0.104727 0)
(-0.061197 0.0924983 0)
(-0.0609496 0.080945 0)
(-0.0607531 0.0699967 0)
(-0.0605998 0.0595341 0)
(-0.0604688 0.0494322 0)
(-0.060335 0.039575 0)
(-0.0601755 0.029863 0)
(-0.0599715 0.0202107 0)
(-0.0597065 0.0105432 0)
(-0.059367 0.000792658 0)
(-0.0589437 -0.00910761 0)
(-0.0584251 -0.0192202 0)
(-0.0577989 -0.0296026 0)
(-0.0570511 -0.040307 0)
(-0.0561654 -0.0513758 0)
(-0.055126 -0.0628402 0)
(-0.0539244 -0.0747268 0)
(-0.0525708 -0.0870795 0)
(-0.0511105 -0.100009 0)
(-0.0496404 -0.113782 0)
(-0.0483104 -0.128941 0)
(-0.0472754 -0.146375 0)
(-0.0465618 -0.167143 0)
(-0.0458635 -0.191983 0)
(-0.0437324 -0.220624 0)
(-0.0378034 -0.245033 0)
(-0.0300146 -0.251068 0)
(-0.00996948 -0.20754 0)
(-0.00490242 0.100467 0)
(-0.0149309 0.135297 0)
(-0.0246262 0.155201 0)
(-0.0346288 0.17188 0)
(-0.0405301 0.178631 0)
(-0.0451317 0.177569 0)
(-0.0479132 0.169718 0)
(-0.0492326 0.158052 0)
(-0.0500548 0.144828 0)
(-0.0503557 0.131086 0)
(-0.0503703 0.117516 0)
(-0.050303 0.104553 0)
(-0.0502007 0.092319 0)
(-0.0501207 0.0807971 0)
(-0.0500661 0.0698837 0)
(-0.0500285 0.059443 0)
(-0.0499913 0.0493428 0)
(-0.0499379 0.0394675 0)
(-0.0498542 0.0297202 0)
(-0.0497292 0.0200188 0)
(-0.0495541 0.0102914 0)
(-0.0493217 0.000471211 0)
(-0.0490267 -0.00950718 0)
(-0.0486616 -0.0197078 0)
(-0.0482164 -0.0301914 0)
(-0.0476771 -0.0410138 0)
(-0.0470245 -0.0522204 0)
(-0.0462354 -0.0638421 0)
(-0.0452881 -0.075897 0)
(-0.0441731 -0.0884065 0)
(-0.0429108 -0.10144 0)
(-0.041572 -0.115206 0)
(-0.0402931 -0.130194 0)
(-0.0392543 -0.147324 0)
(-0.0385582 -0.167872 0)
(-0.0379924 -0.192911 0)
(-0.0365292 -0.222549 0)
(-0.0320985 -0.251755 0)
(-0.0253098 -0.262601 0)
(-0.00837044 -0.225962 0)
(-0.003576 0.108758 0)
(-0.0113514 0.14505 0)
(-0.0192263 0.164007 0)
(-0.0270562 0.178503 0)
(-0.0313546 0.183341 0)
(-0.035169 0.180846 0)
(-0.0372227 0.171733 0)
(-0.0383191 0.159222 0)
(-0.0390633 0.145421 0)
(-0.0394013 0.131324 0)
(-0.0395423 0.117578 0)
(-0.0396173 0.104543 0)
(-0.0396585 0.0922957 0)
(-0.0397021 0.0807839 0)
(-0.0397477 0.0698808 0)
(-0.0397892 0.0594405 0)
(-0.0398168 0.0493279 0)
(-0.0398221 0.0394286 0)
(-0.0397987 0.0296481 0)
(-0.0397424 0.019907 0)
(-0.0396504 0.0101347 0)
(-0.0395203 0.000265152 0)
(-0.0393504 -0.00976723 0)
(-0.0391367 -0.0200286 0)
(-0.0388719 -0.0305842 0)
(-0.0385436 -0.0414954 0)
(-0.0381323 -0.0528137 0)
(-0.0376115 -0.0645741 0)
(-0.0369512 -0.0767917 0)
(-0.0361277 -0.0894714 0)
(-0.0351405 -0.102646 0)
(-0.0340357 -0.116464 0)
(-0.0329293 -0.131346 0)
(-0.0320075 -0.148198 0)
(-0.0314292 -0.168465 0)
(-0.0310645 -0.193583 0)
(-0.0301525 -0.224123 0)
(-0.026948 -0.257119 0)
(-0.0221305 -0.272848 0)
(-0.00726596 -0.243138 0)
(-0.00192819 0.114321 0)
(-0.00771087 0.152533 0)
(-0.0137444 0.170778 0)
(-0.0195376 0.183437 0)
(-0.0225389 0.186957 0)
(-0.0255165 0.183355 0)
(-0.0269685 0.173346 0)
(-0.0278712 0.160223 0)
(-0.0285394 0.145995 0)
(-0.028912 0.131637 0)
(-0.0291505 0.117757 0)
(-0.029332 0.104658 0)
(-0.0294756 0.0923857 0)
(-0.0296026 0.0808638 0)
(-0.0297127 0.0699514 0)
(-0.0298043 0.0594971 0)
(-0.0298749 0.0493651 0)
(-0.0299232 0.0394424 0)
(-0.0299497 0.0296361 0)
(-0.0299557 0.0198682 0)
(-0.0299429 0.0100688 0)
(-0.029913 0.000171575 0)
(-0.0298668 -0.00988988 0)
(-0.0298034 -0.0201841 0)
(-0.0297185 -0.030781 0)
(-0.0296021 -0.0417484 0)
(-0.0294368 -0.0531459 0)
(-0.029196 -0.0650159 0)
(-0.0288461 -0.0773755 0)
(-0.0283541 -0.0902196 0)
(-0.0277044 -0.10355 0)
(-0.0269226 -0.117459 0)
(-0.0261049 -0.13229 0)
(-0.0254302 -0.148889 0)
(-0.0250863 -0.168793 0)
(-0.0250221 -0.193828 0)
(-0.0247379 -0.225136 0)
(-0.0227231 -0.260479 0)
(-0.0190583 -0.280998 0)
(-0.00614634 -0.257097 0)
(-0.000775026 0.118004 0)
(-0.00414388 0.157882 0)
(-0.00831672 0.175594 0)
(-0.0121933 0.186851 0)
(-0.0141067 0.18957 0)
(-0.0161828 0.185151 0)
(-0.0171253 0.17458 0)
(-0.0178336 0.16106 0)
(-0.0184152 0.146543 0)
(-0.0188032 0.132003 0)
(-0.019105 0.118019 0)
(-0.0193569 0.104859 0)
(-0.0195652 0.0925503 0)
(-0.0197416 0.0810019 0)
(-0.0198879 0.0700664 0)
(-0.0200074 0.0595904 0)
(-0.0201044 0.0494382 0)
(-0.0201844 0.0394978 0)
(-0.0202533 0.0296772 0)
(-0.0203172 0.0198984 0)
(-0.0203814 0.0100916 0)
(-0.0204506 0.000189367 0)
(-0.0205279 -0.00987579 0)
(-0.0206149 -0.0201747 0)
(-0.0207101 -0.0307818 0)
(-0.0208065 -0.0417712 0)
(-0.02089 -0.0532113 0)
(-0.0209367 -0.0651539 0)
(-0.020913 -0.0776224 0)
(-0.0207815 -0.0906069 0)
(-0.0205157 -0.104085 0)
(-0.0201233 -0.118098 0)
(-0.0196803 -0.132909 0)
(-0.0193504 -0.149286 0)
(-0.0193374 -0.168798 0)
(-0.0196713 -0.193619 0)
(-0.0200397 -0.225449 0)
(-0.0190942 -0.262985 0)
(-0.0168793 -0.288068 0)
(-0.0053209 -0.270145 0)
(0.00102467 0.118795 0)
(-0.000584537 0.161058 0)
(-0.00293554 0.178535 0)
(-0.00507827 0.1889 0)
(-0.00598252 0.191158 0)
(-0.00715848 0.18629 0)
(-0.00763451 0.17546 0)
(-0.00813123 0.161733 0)
(-0.0086078 0.147047 0)
(-0.00898467 0.132391 0)
(-0.0093158 0.11833 0)
(-0.00960542 0.105111 0)
(-0.00984742 0.0927563 0)
(-0.0100463 0.08117 0)
(-0.0102066 0.0702032 0)
(-0.0103369 0.059703 0)
(-0.0104475 0.0495348 0)
(-0.0105499 0.0395865 0)
(-0.0106551 0.029766 0)
(-0.0107731 0.0199947 0)
(-0.0109125 0.0102017 0)
(-0.0110802 0.000318316 0)
(-0.0112814 -0.00972475 0)
(-0.0115198 -0.0200003 0)
(-0.0117961 -0.0305863 0)
(-0.0121066 -0.0415628 0)
(-0.0124415 -0.0530065 0)
(-0.0127811 -0.0649797 0)
(-0.0130948 -0.0775149 0)
(-0.0133457 -0.0906031 0)
(-0.0135008 -0.104205 0)
(-0.0135535 -0.118316 0)
(-0.0135591 -0.133121 0)
(-0.0136619 -0.149293 0)
(-0.0140703 -0.168389 0)
(-0.0148932 -0.192877 0)
(-0.0159293 -0.224982 0)
(-0.0159413 -0.264104 0)
(-0.0148894 -0.293506 0)
(-0.00450848 -0.28101 0)
(0.00215914 0.117479 0)
(0.00281599 0.16212 0)
(0.00230774 0.179731 0)
(0.00178373 0.189691 0)
(0.00190042 0.191801 0)
(0.00162035 0.186764 0)
(0.00157948 0.175939 0)
(0.00131489 0.162206 0)
(0.000968086 0.147476 0)
(0.000632602 0.132771 0)
(0.000302077 0.118659 0)
(2.27093e-06 0.105386 0)
(-0.000246158 0.0929793 0)
(-0.00044536 0.0813473 0)
(-0.00060269 0.0703448 0)
(-0.000730379 0.059822 0)
(-0.000844441 0.0496448 0)
(-0.000961625 0.0397012 0)
(-0.00109756 0.0298977 0)
(-0.00126591 0.0201543 0)
(-0.0014782 0.0103981 0)
(-0.00174367 0.000558791 0)
(-0.00206942 -0.00943497 0)
(-0.00246088 -0.019658 0)
(-0.0029204 -0.0301916 0)
(-0.0034476 -0.0411208 0)
(-0.00403633 -0.0525293 0)
(-0.00467177 -0.0644885 0)
(-0.00533069 -0.077041 0)
(-0.00598008 -0.090184 0)
(-0.00658466 -0.103869 0)
(-0.00712558 -0.118054 0)
(-0.0076385 -0.132849 0)
(-0.00824608 -0.148832 0)
(-0.009152 -0.167512 0)
(-0.0105343 -0.191571 0)
(-0.0122889 -0.22381 0)
(-0.0131858 -0.264402 0)
(-0.0134297 -0.298064 0)
(-0.0038794 -0.291229 0)
(0.00338554 0.114098 0)
(0.00618503 0.161155 0)
(0.00741617 0.179349 0)
(0.00840498 0.189231 0)
(0.00958357 0.191365 0)
(0.0101581 0.186676 0)
(0.0105764 0.176061 0)
(0.0105869 0.162472 0)
(0.0103978 0.147807 0)
(0.0101319 0.133112 0)
(0.00983259 0.118974 0)
(0.00954939 0.105657 0)
(0.00931332 0.0931978 0)
(0.00912876 0.0815162 0)
(0.00898778 0.0704772 0)
(0.00887385 0.0599358 0)
(0.00876573 0.0497596 0)
(0.00864159 0.0398353 0)
(0.00848134 0.0300677 0)
(0.00826758 0.0203741 0)
(0.00798588 0.0106791 0)
(0.00762466 0.000910174 0)
(0.0071747 -0.00900616 0)
(0.00662928 -0.0191464 0)
(0.00598401 -0.0295947 0)
(0.00523669 -0.0404401 0)
(0.00439059 -0.0517722 0)
(0.00345417 -0.0636715 0)
(0.00244257 -0.0761911 0)
(0.00138357 -0.0893344 0)
(0.000306752 -0.103048 0)
(-0.000760119 -0.117264 0)
(-0.00183347 -0.132031 0)
(-0.00301154 -0.147824 0)
(-0.00448427 -0.166079 0)
(-0.00647623 -0.189633 0)
(-0.00899481 -0.221842 0)
(-0.0106484 -0.263556 0)
(-0.012123 -0.301364 0)
(-0.0032487 -0.299909 0)
(0.00472179 0.108135 0)
(0.00955597 0.158151 0)
(0.0124242 0.1774 0)
(0.0148154 0.187543 0)
(0.0170752 0.189959 0)
(0.0184801 0.185913 0)
(0.0194176 0.175815 0)
(0.0197414 0.162503 0)
(0.0197444 0.14801 0)
(0.019585 0.133388 0)
(0.0193479 0.119257 0)
(0.0191051 0.105903 0)
(0.0189002 0.0933914 0)
(0.0187453 0.081661 0)
(0.0186329 0.0705884 0)
(0.0185431 0.0600351 0)
(0.0184502 0.0498709 0)
(0.0183274 0.0399817 0)
(0.0181503 0.0302695 0)
(0.0178977 0.0206488 0)
(0.0175521 0.011041 0)
(0.0170993 0.00137065 0)
(0.0165275 -0.00843839 0)
(0.0158286 -0.0184652 0)
(0.0149966 -0.0287955 0)
(0.0140268 -0.0395211 0)
(0.0129183 -0.0507345 0)
(0.0116723 -0.0625225 0)
(0.010299 -0.0749498 0)
(0.00881751 -0.0880308 0)
(0.00725059 -0.101714 0)
(0.00562551 -0.11591 0)
(0.00394205 -0.130617 0)
(0.00213193 -0.146209 0)
(2.58152e-05 -0.164031 0)
(-0.00264005 -0.187026 0)
(-0.00600332 -0.219142 0)
(-0.00831135 -0.261868 0)
(-0.0111206 -0.303967 0)
(-0.00270466 -0.308109 0)
(0.00602389 0.100024 0)
(0.0128664 0.153193 0)
(0.0173256 0.173965 0)
(0.0210384 0.184691 0)
(0.0244229 0.187556 0)
(0.0265321 0.184418 0)
(0.0281092 0.175192 0)
(0.0288143 0.162268 0)
(0.0290558 0.148045 0)
(0.0290476 0.133564 0)
(0.028909 0.119473 0)
(0.028736 0.106101 0)
(0.0285859 0.093546 0)
(0.0284781 0.08177 0)
(0.0284073 0.0706676 0)
(0.0283522 0.0601097 0)
(0.0282836 0.0499692 0)
(0.0281709 0.0401312 0)
(0.0279853 0.030495 0)
(0.0277017 0.0209712 0)
(0.027299 0.0114778 0)
(0.0267602 0.00193582 0)
(0.026071 -0.00773385 0)
(0.0252213 -0.0176131 0)
(0.0242027 -0.0277894 0)
(0.0230076 -0.0383563 0)
(0.0216303 -0.0494097 0)
(0.0200683 -0.0610397 0)
(0.0183247 -0.0733153 0)
(0.0164042 -0.0862606 0)
(0.014324 -0.0998359 0)
(0.0121102 -0.113949 0)
(0.00977193 -0.128553 0)
(0.00727555 -0.143923 0)
(0.00447517 -0.161293 0)
(0.00107416 -0.183672 0)
(-0.0032235 -0.215612 0)
(-0.00610366 -0.259305 0)
(-0.0104542 -0.305208 0)
(-0.00187825 -0.315266 0)
(0.0072248 0.0897469 0)
(0.0160603 0.146278 0)
(0.0220835 0.169062 0)
(0.0270467 0.180687 0)
(0.0314902 0.184381 0)
(0.0343798 0.182039 0)
(0.0366126 0.174038 0)
(0.0378127 0.161705 0)
(0.0383592 0.147858 0)
(0.0385578 0.133589 0)
(0.0385676 0.119588 0)
(0.038504 0.106225 0)
(0.0384381 0.09364 0)
(0.0383992 0.0818269 0)
(0.0383865 0.0707022 0)
(0.0383792 0.0601491 0)
(0.0383465 0.0500451 0)
(0.0382543 0.0402753 0)
(0.0380701 0.0307361 0)
(0.0377647 0.021334 0)
(0.0373134 0.0119829 0)
(0.036696 0.00260022 0)
(0.0358951 -0.00689669 0)
(0.0348978 -0.0165925 0)
(0.0336931 -0.0265756 0)
(0.03227 -0.0369407 0)
(0.0306196 -0.047785 0)
(0.0287337 -0.0592023 0)
(0.0266036 -0.0712672 0)
(0.0242267 -0.0840105 0)
(0.0216111 -0.0973983 0)
(0.0187734 -0.111345 0)
(0.0157304 -0.125785 0)
(0.0124948 -0.140909 0)
(0.00893968 -0.157818 0)
(0.00473921 -0.179547 0)
(-0.000584011 -0.211266 0)
(-0.0040105 -0.255971 0)
(-0.00992044 -0.30564 0)
(-0.00115963 -0.322106 0)
(0.0082596 0.0774047 0)
(0.0190265 0.137495 0)
(0.026594 0.162763 0)
(0.0327599 0.175594 0)
(0.0380815 0.180374 0)
(0.0420329 0.178867 0)
(0.0448769 0.172194 0)
(0.0466994 0.16072 0)
(0.0476489 0.147381 0)
(0.0481325 0.133407 0)
(0.0483567 0.119551 0)
(0.0484563 0.106235 0)
(0.0485172 0.0936438 0)
(0.0485797 0.0818103 0)
(0.0486495 0.0706761 0)
(0.048709 0.0601402 0)
(0.0487275 0.0500871 0)
(0.0486692 0.0404032 0)
(0.0484984 0.0309824 0)
(0.0481824 0.0217274 0)
(0.0476927 0.0125478 0)
(0.0470055 0.00335673 0)
(0.0461003 -0.00593221 0)
(0.0449605 -0.0154057 0)
(0.0435712 -0.0251537 0)
(0.041918 -0.0352719 0)
(0.0399873 -0.0458574 0)
(0.0377645 -0.0570028 0)
(0.0352333 -0.0687843 0)
(0.0323795 -0.0812434 0)
(0.0291944 -0.0943596 0)
(0.0256909 -0.108059 0)
(0.0218967 -0.122262 0)
(0.0178564 -0.137095 0)
(0.0134818 -0.153536 0)
(0.0084069 -0.174598 0)
(0.0020127 -0.206064 0)
(-0.00185324 -0.251725 0)
(-0.00919955 -0.305052 0)
(-0.000242661 -0.328194 0)
(0.00895019 0.0630934 0)
(0.0215998 0.126797 0)
(0.030637 0.155017 0)
(0.0380048 0.169407 0)
(0.0442476 0.175387 0)
(0.0491878 0.174994 0)
(0.0528064 0.16954 0)
(0.055363 0.159187 0)
(0.0568596 0.146514 0)
(0.0577445 0.132933 0)
(0.0582781 0.119291 0)
(0.0586204 0.106072 0)
(0.0588719 0.0935134 0)
(0.059085 0.0816866 0)
(0.0592748 0.0705639 0)
(0.0594295 0.0600631 0)
(0.0595215 0.050079 0)
(0.0595151 0.0405007 0)
(0.0593732 0.0312213 0)
(0.0590604 0.0221398 0)
(0.0585441 0.0131622 0)
(0.057798 0.00419669 0)
(0.056797 -0.00484682 0)
(0.0555204 -0.0140561 0)
(0.0539492 -0.023523 0)
(0.052064 -0.0333438 0)
(0.0498453 -0.0436139 0)
(0.0472715 -0.0544246 0)
(0.044317 -0.0658513 0)
(0.0409549 -0.0779392 0)
(0.0371654 -0.0906822 0)
(0.0329551 -0.104032 0)
(0.0283456 -0.117924 0)
(0.0234326 -0.13242 0)
(0.0181437 -0.148366 0)
(0.0120816 -0.168754 0)
(0.0046195 -0.199967 0)
(0.000353123 -0.246752 0)
(-0.0090957 -0.303527 0)
(0.000610013 -0.334107 0)
(0.00903092 0.0472815 0)
(0.0234294 0.114373 0)
(0.0339431 0.145877 0)
(0.0425479 0.162131 0)
(0.0497804 0.169398 0)
(0.0556693 0.170257 0)
(0.0602472 0.16601 0)
(0.063647 0.15694 0)
(0.0658684 0.145109 0)
(0.067317 0.132048 0)
(0.0682961 0.118711 0)
(0.0689939 0.105659 0)
(0.0695281 0.0931849 0)
(0.0699652 0.0814062 0)
(0.070332 0.0703274 0)
(0.0706257 0.0598889 0)
(0.0708246 0.049998 0)
(0.0708961 0.0405497 0)
(0.0708037 0.0314373 0)
(0.0705112 0.0225579 0)
(0.0699828 0.0138145 0)
(0.0691897 0.00511034 0)
(0.0681024 -0.00364742 0)
(0.0666946 -0.0125473 0)
(0.064943 -0.0216829 0)
(0.0628223 -0.0311501 0)
(0.0603053 -0.0410414 0)
(0.0573619 -0.0514448 0)
(0.0539564 -0.0624333 0)
(0.0500505 -0.0740569 0)
(0.0456113 -0.0863247 0)
(0.0406407 -0.0992165 0)
(0.035155 -0.112692 0)
(0.0292926 -0.126795 0)
(0.0229885 -0.142221 0)
(0.0158817 -0.161886 0)
(0.00726713 -0.192738 0)
(0.00268524 -0.240773 0)
(-0.0089037 -0.301216 0)
(0.00174065 -0.339481 0)
(0.00766033 0.0305872 0)
(0.0240475 0.100057 0)
(0.0361073 0.135107 0)
(0.046066 0.153693 0)
(0.0543983 0.162428 0)
(0.0612869 0.16451 0)
(0.0669135 0.161519 0)
(0.0713217 0.153794 0)
(0.0744768 0.142972 0)
(0.0767016 0.130579 0)
(0.0783127 0.117666 0)
(0.0795239 0.104874 0)
(0.0804718 0.0925619 0)
(0.0812393 0.080893 0)
(0.0818674 0.0699082 0)
(0.0823656 0.0595728 0)
(0.0827217 0.0498103 0)
(0.0829094 0.0405239 0)
(0.0828961 0.0316101 0)
(0.0826463 0.0229653 0)
(0.0821238 0.0144916 0)
(0.0812968 0.00608719 0)
(0.0801323 -0.00234116 0)
(0.078598 -0.0108818 0)
(0.0766654 -0.0196305 0)
(0.0743023 -0.0286812 0)
(0.0714722 -0.0381218 0)
(0.0681348 -0.0480366 0)
(0.0642438 -0.0584946 0)
(0.05975 -0.0695508 0)
(0.0546089 -0.0812296 0)
(0.0488197 -0.0935481 0)
(0.0423905 -0.106498 0)
(0.0354939 -0.12013 0)
(0.0280771 -0.135003 0)
(0.019831 -0.153942 0)
(0.00997431 -0.184434 0)
(0.00509308 -0.233704 0)
(-0.00919264 -0.298213 0)
(0.00298753 -0.344568 0)
(0.00405736 0.0158823 0)
(0.0226274 0.0843685 0)
(0.0367191 0.122676 0)
(0.0482188 0.143931 0)
(0.057782 0.15441 0)
(0.0657443 0.157691 0)
(0.0724985 0.155899 0)
(0.0780925 0.149537 0)
(0.0824172 0.13987 0)
(0.0856774 0.128313 0)
(0.0881586 0.11597 0)
(0.0900907 0.103562 0)
(0.0916287 0.0915141 0)
(0.092873 0.0800413 0)
(0.0938814 0.0692224 0)
(0.0946787 0.0590501 0)
(0.0952655 0.0494663 0)
(0.0956255 0.0403861 0)
(0.0957339 0.0317112 0)
(0.0955574 0.0233411 0)
(0.0950646 0.0151781 0)
(0.094219 0.00711637 0)
(0.0929858 -0.00093545 0)
(0.0913282 -0.00906066 0)
(0.0892107 -0.0173599 0)
(0.0865935 -0.0259229 0)
(0.08343 -0.0348316 0)
(0.0796686 -0.044166 0)
(0.075252 -0.0539909 0)
(0.0701212 -0.0643681 0)
(0.0642226 -0.0753385 0)
(0.0575554 -0.0869614 0)
(0.0501181 -0.0992643 0)