/*--------------------------------*- C++ -*----------------------------------*\
  =========                 |
  \\      /  F ield         | OpenFOAM: The Open Source CFD Toolbox
   \\    /   O peration     | Website:  https://openfoam.org
    \\  /    A nd           | Version:  12
     \\/     M anipulation  |
\*---------------------------------------------------------------------------*/
FoamFile
{
    format      ascii;
    class       volScalarField;
    location    "100";
    object      epsilon;
}
// * * * * * * * * * * * * * * * * * * * * * * * * * * * * * * * * * * * * * //

dimensions      [0 2 -3 0 0 0 0];

internalField   nonuniform List<scalar> 
12225
(
285.523
270.713
257.905
243.827
232.439
223.121
216.769
212.724
212.76
213.99
217.285
220.978
228.247
233.034
241.596
247.041
255.802
264.103
52.4862
91.9024
106.959
114.783
124.83
136.851
152.703
170.026
191.248
211.156
235.612
255.91
281.923
300.175
326.587
341.045
369.351
378.023
20.5257
34.8819
44.6653
50.4848
55.3834
59.6352
64.6536
69.6893
76.3335
83.281
91.5201
99.5285
108.372
117.414
125.982
136.39
143.695
156.704
16.003
19.4891
24.0758
27.5709
30.4903
32.8814
35.15
37.3124
39.5023
41.953
44.3528
47.2734
49.7339
53.1836
55.5612
59.5266
61.8727
66.4331
15.0387
15.7134
17.3965
19.082
20.6362
22.0313
23.2437
24.4395
25.4438
26.6091
27.5294
28.7845
29.6535
31.0353
31.872
33.3641
34.2306
35.8926
14.7897
14.8259
15.2493
15.8688
16.566
17.2893
17.9226
18.5879
19.1193
19.7402
20.1966
20.81
21.2189
21.8432
22.2239
22.8665
23.2385
23.9494
14.7657
14.6147
14.6409
14.7261
14.9344
15.2208
15.4911
15.8105
16.0711
16.3853
16.62
16.9251
17.1361
17.4364
17.6279
17.931
18.1073
18.4448
14.7686
14.5867
14.4659
14.3803
14.3676
14.3895
14.4396
14.5338
14.6185
14.7376
14.8316
14.9585
15.0501
15.1804
15.2665
15.4004
15.4816
15.6371
14.768
14.5911
14.4348
14.2963
14.185
14.1044
14.0398
14.0067
13.9813
13.9787
13.9811
13.9922
14.0049
14.031
14.0494
14.0829
14.1083
14.154
14.7665
14.594
14.432
14.2821
14.1429
14.0219
13.9114
13.8193
13.7368
13.6697
13.6101
13.5632
13.5181
13.4873
13.4521
13.4351
13.4041
13.4041
14.7659
14.5945
14.4322
14.2803
14.1361
14.0032
13.8781
13.7643
13.658
13.5627
13.4733
13.3949
13.3195
13.2557
13.1913
13.1407
13.084
13.0459
14.7657
14.5943
14.4321
14.2798
14.1353
13.9998
13.8714
13.7517
13.6383
13.5334
13.4338
13.3427
13.2553
13.1766
13.0998
13.0324
12.9644
12.9074
14.7657
14.5941
14.432
14.2794
14.135
13.9989
13.8698
13.7484
13.633
13.5248
13.4217
13.3254
13.2334
13.148
13.0659
12.9902
12.9168
12.85
14.7657
14.594
14.4318
14.2791
14.1346
13.9983
13.8691
13.7472
13.6315
13.5222
13.4183
13.3202
13.2268
13.1387
13.0548
12.9756
12.9001
12.829
14.7657
14.5938
14.4317
14.2787
14.1343
13.9977
13.8686
13.7464
13.6307
13.521
13.417
13.3184
13.2248
13.136
13.0515
12.9714
12.8952
12.8228
14.7657
14.5938
14.4316
14.2785
14.1339
13.9973
13.8681
13.7458
13.63
13.5203
13.4162
13.3174
13.2237
13.1347
13.0501
12.9698
12.8934
12.8207
14.7657
14.5937
14.4315
14.2783
14.1337
13.997
13.8677
13.7453
13.6294
13.5196
13.4155
13.3167
13.2229
13.1338
13.0492
12.9687
12.8922
12.8194
14.7657
14.5937
14.4314
14.2782
14.1336
13.9968
13.8674
13.745
13.6291
13.5192
13.415
13.3161
13.2222
13.1331
13.0484
12.9679
12.8913
12.8184
14.7657
14.5937
14.4314
14.2782
14.1335
13.9967
13.8673
13.7449
13.6289
13.519
13.4147
13.3158
13.222
13.1328
13.048
12.9675
12.8909
12.8179
14.7657
14.5937
14.4314
14.2782
14.1336
13.9968
13.8675
13.745
13.6291
13.5191
13.415
13.316
13.2222
13.133
13.0483
12.9677
12.8912
12.8182
14.7657
14.5937
14.4315
14.2784
14.1337
13.9971
13.8678
13.7454
13.6295
13.5197
13.4156
13.3168
13.2231
13.1342
13.0497
12.9694
12.8931
12.8206
14.7657
14.5937
14.4316
14.2785
14.1341
13.9975
13.8685
13.7465
13.6313
13.5222
13.4192
13.3216
13.2295
13.1421
13.0598
12.9814
12.9078
12.8374
14.7658
14.5937
14.4318
14.2788
14.1353
14.0002
13.8743
13.7561
13.6464
13.5436
13.4487
13.3593
13.2772
13.1994
13.1285
13.0604
12.9992
12.939
14.7655
14.5928
14.4328
14.2844
14.1515
14.0322
13.929
13.8376
13.7593
13.6894
13.6307
13.577
13.5328
13.4905
13.4573
13.4229
13.3987
13.369
14.7591
14.5932
14.4603
14.3602
14.3029
14.2766
14.2797
14.2938
14.3201
14.3528
14.3956
14.4342
14.4819
14.5211
14.5711
14.6079
14.6602
14.6922
14.7202
14.6909
14.7541
14.9176
15.1827
15.4612
15.7473
16.0119
16.2718
16.5033
16.7351
16.9375
17.1491
17.3289
17.5283
17.6904
17.8847
18.031
14.7417
15.514
16.5478
17.6845
18.7042
19.5675
20.3365
20.9962
21.6179
22.1645
22.7161
23.2076
23.7352
24.1987
24.7252
25.1735
25.7134
26.1519
15.982
20.9902
25.0225
27.7596
29.7834
31.3576
32.7745
34.0558
35.3546
36.6112
37.9665
39.2871
40.7462
42.1283
43.693
45.1439
46.8443
48.3118
29.8999
47.2154
54.8673
58.6709
61.6101
64.427
67.5721
70.9673
74.7212
78.6917
82.9527
87.3029
91.8497
96.3813
101.013
105.518
110.048
114.426
165.791
160.072
154.899
149.563
144.48
139.677
135.615
132.108
129.269
126.97
125.315
124.036
123.328
122.813
122.81
122.952
123.234
123.78
3.52682
2.21117
3.3029
4.26254
5.12262
5.89741
6.59605
7.21824
7.75448
8.20307
8.55348
37.6733
40.1384
42.6755
44.5704
45.3484
44.5394
48.8988
49.6607
45.1576
8.89354
40.6545
47.2505
53.4783
60.5053
68.2302
76.7241
85.9284
95.8597
106.428
117.628
129.353
141.595
154.242
167.286
180.62
194.246
208.068
222.102
236.261
250.58
264.976
279.488
294.044
308.688
323.355
338.09
352.838
367.641
382.452
397.308
412.17
427.068
441.969
456.897
471.826
486.77
501.711
516.655
531.591
546.511
561.409
576.265
591.093
605.857
620.597
635.26
649.909
664.474
679.045
693.533
708.054
722.499
737.015
751.469
766.032
780.551
795.223
809.886
824.748
839.599
854.646
869.601
884.571
898.976
912.458
923.448
926.331
956.243
973.878
990.262
1007.67
1031.79
1047.36
1068.84
1086.18
1100.39
1110.92
1110.4
1125.54
1159.52
1162.15
1192.6
1194.45
1208.11
1224.4
1237.32
1252.27
1264.19
1291.81
1291.47
1301.44
1324.72
1326.14
1330.54
1328.78
1332.63
1336.21
1341.98
1335.92
1330.22
1321.01
1309.86
1296.26
1280.3
1262.05
1241.45
1218.58
1193.51
1166.41
1137.5
1107.11
1074.98
1040.92
1005.9
970.057
933.738
897.2
860.55
824.3
789.072
753.446
721.541
698.194
676.823
655.939
635.391
615.285
595.648
576.562
558.13
539.867
522.14
505.322
488.876
473.099
457.897
443.309
429.39
416.19
403.676
391.778
380.482
369.786
359.676
350.111
341.079
332.551
324.511
316.919
309.764
302.971
296.589
290.354
284.682
278.435
273.461
265.807
261.252
239.45
7.90347
4.85994
4.59968
4.82413
5.2433
5.77505
6.4088
7.16703
8.13707
9.54068
11.9125
16.5134
19.4026
21.6462
23.6098
25.4544
27.3208
29.3062
30.3868
30.4917
30.3478
36.5491
41.0369
45.3759
49.932
54.7098
59.699
64.8878
70.2252
75.6875
81.2613
86.9251
92.6713
98.4835
104.359
110.286
116.265
122.288
128.36
134.477
140.649
146.855
153.1
159.377
165.689
172.032
178.409
184.815
191.254
197.719
204.214
210.735
217.281
223.85
230.441
237.05
243.677
250.317
256.97
263.631
270.298
276.966
283.631
290.29
296.938
303.578
310.203
316.817
323.415
330.003
336.573
343.135
349.68
356.22
362.744
369.266
375.771
382.276
388.762
395.241
401.682
408.09
414.415
420.637
426.677
432.522
438.186
444.041
452.061
458.748
465.448
472.457
479.661
485.91
492.451
498.061
503.001
507.382
511.441
517.44
524.159
528.162
534
537.252
541.959
546.913
551.448
556.193
560.425
565.164
565.491
569.083
575.764
575.578
578.953
580.078
581.084
581.059
582.652
581.116
579.219
576.358
572.771
568.341
563.086
556.992
550.045
542.227
533.522
523.957
513.585
502.478
490.64
478.078
464.999
451.476
437.616
423.515
409.243
394.909
380.659
366.339
352.474
340.13
328.506
317.24
306.245
295.535
285.13
275.048
265.331
255.807
246.398
237.361
228.634
220.238
212.176
204.449
197.067
190.048
183.388
177.066
171.07
165.394
160.028
154.959
150.175
145.664
141.417
137.417
133.66
130.119
126.814
123.663
120.804
117.955
115.614
113.105
113.595
114.298
14.3852
7.92257
6.83869
6.72357
6.96624
7.41774
8.03616
8.83015
9.84114
11.1443
12.8312
14.9216
17.0367
19.1634
21.3474
23.621
25.9861
28.3921
30.7481
33.1999
36.1321
39.7612
43.5031
47.3211
51.2622
55.3363
59.507
63.6991
67.9774
72.3409
76.7865
81.3064
85.8956
90.5484
95.2629
100.04
104.875
109.763
114.702
119.692
124.73
129.812
134.938
140.105
145.313
150.56
155.846
161.169
166.529
171.923
177.352
182.812
188.304
193.825
199.374
204.948
210.546
216.164
221.8
227.452
233.116
238.788
244.466
250.145
255.822
261.495
267.159
272.813
278.451
284.072
289.672
295.248
300.796
306.314
311.796
317.241
322.64
327.991
333.286
338.518
343.677
348.755
353.739
358.625
363.413
368.132
372.844
377.671
382.724
387.487
392.194
396.848
401.348
405.555
409.605
413.331
416.833
420.218
423.65
427.383
430.994
434.11
437.393
440.254
443.4
446.523
449.524
452.432
455.137
457.615
459.413
461.888
464.442
465.673
467.176
468.075
468.812
469.048
468.984
468.188
466.917
465.045
462.58
459.47
455.698
451.237
446.072
440.186
433.58
426.27
418.288
409.673
400.46
390.696
380.475
369.866
358.943
347.777
336.428
324.961
313.464
301.994
290.797
280.212
270.087
260.276
250.732
241.453
232.455
223.749
215.352
207.217
199.318
191.716
184.368
177.243
170.394
163.817
157.512
151.5
145.777
140.336
135.169
130.27
125.633
121.248
117.107
113.199
109.518
106.052
102.795
99.7328
96.8698
94.173
91.6932
89.3353
87.3076
85.2681
84.6115
84.6678
21.7623
11.3852
9.49132
9.08513
9.21234
9.64064
10.2923
11.1473
12.2124
13.5062
15.0462
16.8259
18.7977
20.9368
23.2311
25.6679
28.2296
30.8953
33.6606
36.5678
39.683
43.0108
46.4672
50.022
53.6696
57.4006
61.2216
65.1571
69.1896
73.3129
77.5274
81.8213
86.1863
90.6151
95.1
99.6493
104.265
108.945
113.689
118.494
123.357
128.277
133.252
138.28
143.359
148.488
153.666
158.891
164.162
169.478
174.838
180.239
185.681
191.161
196.678
202.229
207.813
213.427
219.067
224.731
230.416
236.117
241.83
247.552
253.278
259.004
264.724
270.433
276.127
281.8
287.445
293.058
298.631
304.158
309.632
315.046
320.391
325.661
330.845
335.936
340.924
345.801
350.561
355.205
359.738
364.178
368.553
372.889
377.171
381.306
385.316
389.187
392.88
396.365
399.665
402.764
405.713
408.571
411.397
414.213
416.909
419.43
421.892
424.232
426.586
428.881
431.078
433.173
435.12
436.893
438.477
440.138
441.668
442.809
443.725
444.17
444.371
444.328
443.978
443.152
441.882
440.106
437.764
434.833
431.283
427.084
422.216
416.664
410.43
403.524
395.972
387.808
379.074
369.824
360.126
350.046
339.652
329.007
318.181
307.256
296.328
285.485
274.861
264.597
254.675
245.049
235.698
226.626
217.844
209.361
201.187
193.307
185.712
178.415
171.405
164.668
158.208
151.993
146.006
140.286
134.817
129.605
124.644
119.931
115.462
111.229
107.225
103.443
99.8749
96.5136
93.3522
90.3814
87.5987
84.9896
82.5736
80.3173
78.3148
76.4492
75.187
74.7879
29.4816
15.1802
12.4026
11.6965
11.7033
12.1009
12.7712
13.6694
14.783
16.1118
17.658
19.4176
21.3774
23.5207
25.8302
28.2884
30.8788
33.5888
36.4144
39.3639
42.4493
45.6688
49.0068
52.452
55.9997
59.6477
63.3976
67.2521
71.2077
75.2593
79.4015
83.6342
87.9571
92.3683
96.8674
101.454
106.125
110.875
115.704
120.607
125.584
130.631
135.747
140.93
146.177
151.487
156.859
162.291
167.781
173.328
178.93
184.585
190.293
196.051
201.856
207.708
213.602
219.537
225.509
231.515
237.551
243.612
249.694
255.791
261.899
268.011
274.12
280.22
286.303
292.362
298.389
304.376
310.312
316.191
322.001
327.733
333.376
338.921
344.356
349.672
354.859
359.907
364.812
369.57
374.184
378.663
383.018
387.252
391.356
395.301
399.083
402.688
406.099
409.307
412.322
415.149
417.821
420.37
422.824
425.183
427.415
429.51
431.491
433.362
435.148
436.839
438.423
439.901
441.246
442.454
443.539
444.561
445.442
446.05
446.329
446.271
446.107
445.679
444.935
443.807
442.261
440.253
437.715
434.616
430.918
426.59
421.605
415.95
409.62
402.624
394.984
386.733
377.913
368.579
358.791
348.614
338.114
327.37
316.466
305.491
294.535
283.684
273.032
262.658
252.58
242.789
233.285
224.074
215.168
206.575
198.301
190.345
182.699
175.368
168.344
161.617
155.183
149.023
143.124
137.49
132.071
126.897
121.956
117.253
112.783
108.54
104.52
100.716
97.1233
93.7346
90.544
87.5444
84.7279
82.0912
79.6413
77.3679
75.3163
73.4585
71.9823
71.1259
37.0735
19.0523
15.3966
14.3785
14.2599
14.609
15.2729
16.1844
17.3162
18.6576
20.2033
21.9475
23.8808
25.9902
28.2615
30.6796
33.2321
35.9095
38.7072
41.6254
44.6662
47.8293
51.1118
54.5104
58.0237
61.6508
65.392
69.2472
73.2155
77.2949
81.4838
85.781
90.186
94.6972
99.3138
104.034
108.855
113.774
118.789
123.897
129.096
134.383
139.755
145.211
150.747
156.363
162.056
167.824
173.665
179.578
185.561
191.612
197.73
203.912
210.156
216.46
222.82
229.235
235.7
242.211
248.764
255.353
261.974
268.621
275.285
281.96
288.638
295.31
301.968
308.6
315.198
321.749
328.244
334.669
341.013
347.264
353.408
359.434
365.327
371.077
376.67
382.098
387.352
392.426
397.318
402.03
406.565
410.921
415.092
419.07
422.844
426.406
429.748
432.866
435.767
438.461
440.965
443.302
445.488
447.527
449.413
451.143
452.727
454.169
455.48
456.658
457.708
458.64
459.436
460.082
460.604
461.034
461.229
461.138
460.875
460.412
459.749
458.831
457.609
456.035
454.063
451.644
448.728
445.27
441.229
436.568
431.258
425.281
418.628
411.306
403.334
394.742
385.573
375.878
365.719
355.167
344.301
333.209
321.98
310.703
299.463
288.34
277.408
266.725
256.32
246.205
236.389
226.884
217.701
208.85
200.335
192.157
184.313
176.801
169.616
162.749
156.191
149.93
143.952
138.25
132.8
127.599
122.61
117.848
113.309
108.991
104.89
101.004
97.3287
93.8579
90.5865
87.5086
84.6169
81.9104
79.3907
77.0559
74.9307
73.0174
71.409
70.2058
44.2899
22.8336
18.3262
16.9933
16.7416
17.0259
17.6616
18.5596
19.6803
21.0044
22.5222
24.2257
26.1069
28.1559
30.3622
32.7148
35.205
37.8256
40.573
43.4457
46.444
49.5683
52.8187
56.1952
59.6979
63.327
67.0832
70.9666
74.9774
79.1151
83.3793
87.7694
92.2849
96.9248
101.688
106.573
111.577
116.699
121.936
127.285
132.744
138.31
143.981
149.753
155.626
161.595
167.66
173.819
180.068
186.407
192.834
199.346
205.943
212.62
219.377
226.211
233.119
240.096
247.141
254.247
261.41
268.625
275.884
283.181
290.507
297.855
305.213
312.573
319.923
327.25
334.543
341.788
348.972
356.08
363.096
370.007
376.796
383.448
389.949
396.282
402.434
408.393
414.147
419.688
425.009
430.107
434.98
439.624
444.035
448.207
452.134
455.81
459.229
462.39
465.298
467.961
470.391
472.605
474.614
476.424
478.038
479.456
480.686
481.733
482.609
483.303
483.832
484.232
484.482
484.52
484.345
484.072
483.588
482.913
482.047
480.979
479.696
478.159
476.329
474.162
471.616
468.641
465.19
461.214
456.671
451.52
445.729
439.275
432.148
424.35
415.897
406.817
397.153
386.959
376.304
365.269
353.939
342.405
330.756
319.079
307.456
295.961
284.657
273.597
262.813
252.325
242.15
232.303
222.796
213.638
204.833
196.382
188.284
180.536
173.131
166.061
159.316
152.884
146.754
140.913
135.345
130.039
124.975
120.13
115.496
111.073
106.864
102.867
99.0822
95.5037
92.1271
88.9473
85.9588
83.1588
80.5479
78.1274
75.912
73.9121
72.184
70.716
50.9185
26.3831
21.07
19.4264
19.0371
19.2464
19.8397
20.7077
21.7992
23.0885
24.5617
26.2101
28.0266
30.0039
32.1351
34.4131
36.8321
39.3876
42.0768
44.8987
47.8533
50.9415
54.1642
57.5226
61.018
64.6513
68.4239
72.3368
76.3909
80.5867
84.9249
89.4054
94.0283
98.7933
103.7
108.746
113.931
119.254
124.711
130.3
136.02
141.867
147.84
153.935
160.151
166.485
172.935
179.499
186.175
192.961
199.855
206.856
213.961
221.167
228.474
235.878
243.375
250.963
258.636
266.391
274.222
282.122
290.083
298.099
306.159
314.255
322.373
330.504
338.632
346.746
354.829
362.867
370.842
378.738
386.537
394.22
401.771
409.169
416.397
423.438
430.274
436.889
443.27
449.404
455.282
460.895
466.238
471.304
476.088
480.588
484.796
488.708
492.319
495.628
498.64
501.36
503.797
505.962
507.866
509.516
510.916
512.072
512.987
513.666
514.142
514.362
514.339
514.151
513.766
513.156
512.351
511.362
510.168
508.771
507.169
505.354
503.307
501.003
498.409
495.488
492.201
488.504
484.349
479.691
474.485
468.689
462.269
455.201
447.47
439.075
430.031
420.364
410.123
399.368
388.174
376.624
364.806
352.808
340.72
328.624
316.6
304.715
293.03
281.591
270.434
259.584
249.059
238.878
229.053
219.591
210.497
201.773
193.415
185.421
177.785
170.497
163.547
156.924
150.615
144.608
138.888
133.443
128.256
123.309
118.574
114.037
109.709
105.592
101.688
97.9916
94.5004
91.2093
88.1139
85.2107
82.4997
79.9827
77.6688
75.5685
73.7217
72.0451
56.7876
29.5842
23.5322
21.5914
21.0651
21.1956
21.7398
22.5703
23.6257
24.8741
26.2989
27.8901
29.6415
31.5478
33.6047
35.8083
38.1554
40.6433
43.271
46.0378
48.9444
51.9918
55.1816
58.5156
61.9957
65.6237
69.4017
73.3315
77.4149
81.6534
86.0482
90.6005
95.311
100.18
105.208
110.394
115.738
121.238
126.893
132.702
138.662
144.772
151.029
157.431
163.976
170.663
177.488
184.451
191.548
198.78
206.143
213.636
221.257
229.003
236.873
244.864
252.972
261.194
269.525
277.96
286.493
295.116
303.823
312.603
321.447
330.344
339.28
348.242
357.216
366.185
375.132
384.039
392.887
401.656
410.325
418.874
427.28
435.522
443.579
451.43
459.053
466.431
473.545
480.379
486.921
493.158
499.081
504.68
509.951
514.886
519.483
523.733
527.634
531.184
534.384
537.239
539.756
541.943
543.808
545.36
546.605
547.55
548.195
548.512
548.544
548.299
547.786
547.021
546
544.723
543.201
541.443
539.446
537.216
534.748
532.04
529.078
525.845
522.314
518.46
514.248
509.641
504.596
499.072
493.025
486.416
479.21
471.382
462.917
453.815
444.088
433.77
422.911
411.574
399.835
387.775
375.482
363.041
350.539
338.055
325.661
313.424
301.397
289.626
278.145
266.981
256.155
245.686
235.585
225.861
216.515
207.549
198.96
190.744
182.896
175.406
168.263
161.455
154.972
148.8
142.925
137.333
132.01
126.94
122.1
117.451
113.004
108.769
104.746
100.933
97.3278
93.9256
90.7221
87.7143
84.9012
82.2843
79.8691
77.6635
75.6972
73.8491
61.7701
32.3495
25.646
23.4321
22.7749
22.8282
23.3224
24.1144
25.1338
26.3438
27.7245
29.2649
30.9587
32.8021
34.7925
36.9279
39.2073
41.6296
44.195
46.9038
49.7573
52.7571
55.9053
59.2041
62.6563
66.2644
70.0314
73.9598
78.0524
82.3115
86.7392
91.3375
96.108
101.052
106.171
111.466
116.937
122.583
128.405
134.402
140.572
146.915
153.428
160.11
166.96
173.976
181.157
188.5
196.004
203.667
211.489
219.467
227.6
235.885
244.32
252.903
261.63
270.497
279.499
288.631
297.887
307.258
316.737
326.312
335.974
345.709
355.504
365.342
375.208
385.084
394.949
404.784
414.566
424.272
433.88
443.364
452.7
461.862
470.826
479.566
488.059
496.282
504.214
511.835
519.127
526.075
532.666
538.888
544.732
550.193
555.262
559.935
564.205
568.072
571.533
574.593
577.256
579.526
581.413
582.923
584.066
584.832
585.207
585.205
584.868
584.187
583.169
581.824
580.157
578.172
575.878
573.285
570.399
567.224
563.766
560.022
555.988
551.655
547.006
542.025
536.686
530.963
524.823
518.228
511.144
503.536
495.374
486.634
477.306
467.394
456.914
445.898
434.397
422.475
410.203
397.662
384.934
372.101
359.243
346.434
333.741
321.223
308.933
296.91
285.187
273.79
262.741
252.058
241.755
231.836
222.302
213.152
204.385
195.996
187.98
180.326
173.024
166.063
159.43
153.113
147.098
141.373
135.923
130.731
125.779
121.024
116.468
112.124
107.992
104.072
100.361
96.855
93.5494
90.4415
87.5297
84.8149
82.3
79.99
77.9068
75.9126
65.7941
34.6269
27.3753
24.9223
24.1458
24.1296
24.5733
25.3292
26.3172
27.4954
28.8409
30.3411
31.9895
33.7823
35.718
37.7957
40.0156
42.3779
44.8839
47.5347
50.3325
53.2794
56.3783
59.6322
63.0447
66.6192
70.3594
74.2691
78.3517
82.6107
87.0488
91.668
96.4711
101.461
106.64
112.012
117.578
123.338
129.295
135.448
141.797
148.342
155.084
162.019
169.149
176.471
183.985
191.689
199.583
207.664
215.932
224.386
233.023
241.842
250.841
260.016
269.364
278.881
288.563
298.402
308.393
318.527
328.795
339.185
349.686
360.284
370.964
381.708
392.497
403.313
414.132
424.933
435.69
446.377
456.968
467.435
477.749
487.882
497.805
507.49
516.908
526.034
534.841
543.306
551.408
559.127
566.447
573.352
579.832
585.877
591.48
596.634
601.332
605.57
609.348
612.664
615.522
617.925
619.88
621.392
622.467
623.073
623.237
622.969
622.28
621.171
619.65
617.719
615.388
612.66
609.546
606.052
602.191
597.969
593.397
588.478
583.216
577.608
571.653
565.342
558.666
551.608
544.151
536.269
527.938
519.134
509.838
500.033
489.718
478.904
467.606
455.852
443.695
431.194
418.418
405.44
392.338
379.185
366.055
353.012
340.118
327.424
314.976
302.81
290.954
279.43
268.259
257.464
247.054
237.032
227.396
218.143
209.272
200.778
192.657
184.897
177.488
170.419
163.677
157.253
151.131
145.299
139.744
134.449
129.395
124.542
119.893
115.456
111.233
107.222
103.42
99.8221
96.4257
93.2273
90.225
87.4189
84.81
82.4006
80.2067
78.087
68.8356
36.3926
28.7061
26.0524
25.1678
25.0921
25.4951
26.2217
27.1858
28.3412
29.6627
31.1358
32.753
34.5101
36.4058
38.4395
40.6121
42.9245
45.3787
47.9767
50.7214
53.6158
56.6637
59.869
63.2362
66.7701
70.4754
74.3566
78.4186
82.6662
87.1045
91.7294
96.5447
101.554
106.769
112.194
117.83
123.681
129.749
136.035
142.542
149.27
156.22
163.391
170.785
178.4
186.235
194.291
202.566
211.06
219.771
228.698
237.84
247.194
256.758
266.53
276.505
286.68
297.049
307.605
318.341
329.248
340.317
351.534
362.887
374.362
385.94
397.603
409.332
421.103
432.893
444.676
456.425
468.111
479.704
491.173
502.486
513.611
524.514
535.165
545.531
555.582
565.288
574.622
583.558
592.074
600.148
607.763
614.904
621.561
627.725
633.386
638.538
643.175
647.294
650.893
653.973
656.534
658.58
660.115
661.136
661.63
661.612
661.082
660.047
658.511
656.477
653.947
650.925
647.417
643.429
638.97
634.052
628.685
622.881
616.65
610.004
602.951
595.499
587.655
579.424
570.809
561.807
552.413
542.619
532.422
521.818
510.799
499.371
487.543
475.301
462.73
449.878
436.801
423.558
410.212
396.827
383.466
370.189
357.05
344.098
331.377
318.922
306.763
294.924
283.42
272.249
261.462
251.063
241.049
231.416
222.158
213.272
204.759
196.611
188.818
181.369
174.252
167.457
160.974
154.79
148.891
143.264
137.894
132.76
127.83
123.112
118.607
114.315
110.234
106.36
102.689
99.2178
95.943
92.8626
89.9758
87.2821
84.7823
82.4869
80.2605
70.9042
37.6472
29.6463
26.837
25.8647
25.7404
26.1119
26.8174
27.7664
28.9098
30.2198
31.6803
33.2825
35.0214
36.895
38.9027
41.0453
43.3242
45.7417
48.3005
51.0041
53.8566
56.8627
60.0275
63.3569
66.8581
70.5355
74.3937
78.4381
82.6746
87.1097
91.7341
96.5589
101.587
106.838
112.312
118.016
123.952
130.127
136.544
143.207
150.119
157.28
164.693
172.356
180.272
188.439
196.858
205.528
214.448
223.617
233.034
242.697
252.604
262.751
273.137
283.757
294.605
305.675
316.962
328.456
340.147
352.025
364.077
376.288
388.642
401.12
413.702
426.366
439.088
451.841
464.598
477.328
490.001
502.582
515.037
527.332
539.431
551.297
562.895
574.189
585.145
595.73
605.912
615.663
624.956
633.766
642.072
649.859
657.111
663.82
669.973
675.565
680.587
685.036
688.908
692.201
694.912
697.044
698.597
699.567
699.946
699.739
698.93
697.532
695.55
692.976
689.814
686.06
681.72
676.796
671.297
665.232
658.614
651.457
643.777
635.591
626.919
617.78
608.198
598.193
587.795
577.025
565.901
554.439
542.655
530.44
517.935
505.185
492.221
479.143
465.879
452.463
438.937
425.351
411.756
398.204
384.748
371.434
358.307
345.405
332.763
320.409
308.366
296.652
285.276
274.246
263.619
253.38
243.517
234.02
224.882
216.089
207.655
199.574
191.834
184.423
177.329
170.547
164.066
157.874
151.957
146.302
140.894
135.709
130.739
125.984
121.441
117.109
112.985
109.064
105.342
101.816
98.4829
95.3402
92.3868
89.6212
87.0429
84.6583
82.3435
72.0785
38.4207
30.2234
27.3077
26.2725
26.1136
26.4647
27.1596
28.105
29.2494
30.5634
32.0292
33.6364
35.3792
37.2546
39.2615
41.4003
43.6724
46.0802
48.627
51.3167
54.1546
57.1472
60.2987
63.6152
67.1034
70.7696
74.6201
78.6614
82.8995
87.339
91.9861
96.8489
101.936
107.255
112.815
118.623
124.686
131.011
137.602
144.464
151.6
159.013
166.706
174.683
182.944
191.49
200.319
209.432
218.827
228.502
238.455
248.685
259.188
269.961
280.999
292.298
303.851
315.651
327.691
339.961
352.449
365.145
378.032
391.097
404.32
417.682
431.162
444.734
458.374
472.052
485.739
499.403
513.008
526.52
539.901
553.113
566.117
578.874
591.345
603.492
615.277
626.664
637.618
648.107
658.101
667.572
676.497
684.854
692.631
699.814
706.393
712.358
717.702
722.421
726.508
729.958
732.767
734.936
736.462
737.344
737.556
737.114
735.972
734.163
731.677
728.507
724.646
720.091
714.84
708.893
702.255
694.934
686.942
678.295
669.015
659.124
648.654
637.64
626.12
614.134
601.742
588.999
575.802
562.311
548.571
534.871
521.065
507.184
493.324
479.314
465.273
451.246
437.27
423.38
409.611
395.999
382.576
369.375
356.422
343.741
331.354
319.279
307.528
296.111
285.029
274.258
263.887
253.89
244.257
234.978
226.043
217.436
209.197
201.294
193.712
186.435
179.448
172.754
166.344
160.206
154.327
148.694
143.289
138.107
133.143
128.391
123.847
119.509
115.371
111.432
107.685
104.128
100.757
97.5717
94.5691
91.7472
89.1055
86.6463
84.2617
72.2451
38.7026
30.4646
27.5083
26.4443
26.271
26.6158
27.3145
28.2732
29.4384
30.7792
32.2764
33.9183
35.698
37.6114
39.6568
41.834
44.1443
46.5904
49.1754
51.9026
54.7765
57.8024
60.987
64.3378
67.8619
71.5675
75.4626
79.5556
83.8547
88.3687
93.1066
98.0783
103.293
108.762
114.493
120.496
126.778
133.348
140.211
147.373
154.839
162.612
170.695
179.091
187.802
196.829
206.171
215.827
225.795
236.071
246.652
257.536
268.716
280.189
291.947
303.985
316.294
328.867
341.692
354.759
368.056
381.569
395.282
409.178
423.238
437.441
451.762
466.178
480.66
495.178
509.701
524.193
538.62
552.943
567.122
581.117
594.888
608.393
621.59
634.44
646.902
658.938
670.511
681.586
692.129
702.112
711.507
720.292
728.45
735.969
742.836
749.042
754.58
759.443
763.625
767.117
769.913
772.013
773.409
774.09
774.048
773.261
771.694
769.371
766.277
762.402
757.732
752.259
745.975
738.879
730.968
722.251
712.735
702.442
691.395
679.624
667.177
654.105
640.457
626.202
611.443
596.285
581.083
565.832
550.606
535.21
519.834
504.558
489.433
474.461
459.679
445.114
430.789
416.721
402.925
389.416
376.204
363.299
350.711
338.445
326.507
314.902
303.632
292.699
282.099
271.83
261.91
252.335
243.099
234.191
225.6
217.3
209.331
201.673
194.311
187.232
180.417
173.892
167.633
161.622
155.847
150.296
144.96
139.841
134.934
130.231
125.727
121.42
117.305
113.378
109.635
106.074
102.69
99.4833
96.4515
93.5919
90.9041
88.3873
85.952
71.9099
38.6497
30.4443
27.493
26.435
26.2765
26.648
27.3853
28.3926
29.6172
31.0278
32.6046
34.3351
36.2114
38.2286
40.384
42.6766
45.1065
47.6752
50.3854
53.241
56.2471
59.4098
62.7363
66.2349
69.9143
73.7843
77.8549
82.1368
86.6406
91.3778
96.3598
101.598
107.105
112.891
118.968
125.345
132.031
139.036
146.365
154.026
162.023
170.36
179.04
188.063
197.428
207.137
217.189
227.58
238.305
249.359
260.737
272.431
284.435
296.739
309.335
322.214
335.364
348.775
362.434
376.328
390.444
404.765
419.275
433.955
448.785
463.743
478.805
493.944
509.132
524.338
539.53
554.671
569.726
584.654
599.417
613.971
628.275
642.287
655.966
669.269
682.157
694.59
706.529
717.938
728.784
739.033
748.657
757.63
765.936
773.559
780.487
786.713
792.227
797.024
801.095
804.429
807.017
808.855
809.943
810.222
809.761
808.427
806.253
803.23
799.339
794.562
788.885
782.291
774.769
766.31
756.911
746.576
735.312
723.142
710.101
696.209
681.447
665.862
649.617
633.009
616.115
598.923
581.704
564.286
546.91
529.659
512.647
495.966
479.676
463.808
448.384
433.414
418.9
404.834
391.208
378.01
365.224
352.837
340.834
329.203
317.93
307.007
296.424
286.172
276.244
266.633
257.339
248.357
239.679
231.295
223.196
215.37
207.82
200.539
193.519
186.749
180.208
173.917
167.859
162.023
156.406
151.001
145.803
140.814
136.023
131.423
127.006
122.772
118.716
114.836
111.128
107.59
104.22
101.015
97.976
95.099
92.384
89.8276
87.3613
70.8973
38.2849
30.2205
27.3365
26.3412
26.2605
26.7243
27.56
28.6824
30.0411
31.6052
33.3549
35.2772
37.3634
39.6081
42.0077
44.5606
47.2666
50.1265
53.1428
56.3194
59.6616
63.1763
66.8711
70.7552
74.8383
79.1314
83.646
88.3944
93.3892
98.6434
104.17
109.983
116.095
122.519
129.268
136.351
143.777
151.555
159.689
168.187
177.055
186.291
195.896
205.867
216.2
226.889
237.929
249.314
261.036
273.086
285.454
298.128
311.095
324.344
337.86
351.629
365.639
379.875
394.322
408.966
423.79
438.778
453.914
469.177
484.55
500.009
515.532
531.092
546.662
562.212
577.71
593.123
608.413
623.543
638.474
653.164
667.573
681.66
695.385
708.707
721.589
733.99
745.874
757.205
767.947
778.068
787.537
796.327
804.418
811.794
818.443
824.356
829.528
833.95
837.612
840.5
842.602
843.909
844.404
844.094
842.912
840.8
837.771
833.802
828.871
822.952
816.026
808.071
799.074
789.016
777.892
765.712
752.47
738.152
722.731
706.327
689.121
671.267
652.798
633.951
614.577
594.928
575.208
555.543
536.108
517.045
498.488
480.538
463.263
446.699
430.853
415.714
401.258
387.449
374.25
361.617
349.509
337.884
326.704
315.936
305.549
295.519
285.824
276.446
267.371
258.586
250.084
241.854
233.888
226.173
218.701
211.463
204.455
197.668
191.1
184.744
178.582
172.623
166.868
161.309
155.944
150.768
145.772
140.963
136.334
131.877
127.588
123.471
119.518
115.725
112.089
108.607
105.279
102.105
99.0837
96.2127
93.493
90.9182
88.4424
69.2987
37.5807
29.8183
27.1253
26.3003
26.3766
27.0071
28.0398
29.3898
31.0084
32.8659
34.9433
37.2281
39.712
42.3894
45.2566
48.3118
51.5542
54.9845
58.6044
62.4176
66.4292
70.6456
75.0742
79.7239
84.6043
89.7265
95.1021
100.743
106.663
112.874
119.39
126.224
133.391
140.903
148.774
157.012
165.62
174.602
183.96
193.694
203.8
214.279
225.126
236.336
247.9
259.81
272.053
284.615
297.484
310.643
324.075
337.761
351.685
365.829
380.174
394.704
409.402
424.252
439.24
454.348
469.563
484.868
500.249
515.69
531.173
546.681
562.191
577.682
593.129
608.504
623.78
638.926
653.909
668.694
683.244
697.523
711.492
725.115
738.354
751.172
763.534
775.404
786.747
797.528
807.714
817.269
826.164
834.369
841.863
848.625
854.643
859.908
864.416
868.156
871.116
873.279
874.628
875.149
874.852
873.68
871.543
868.437
864.338
859.216
853.042
845.786
837.424
827.928
817.282
805.464
792.447
778.161
762.669
746.055
728.459
709.88
690.505
670.195
649.191
627.68