/*--------------------------------*- C++ -*----------------------------------*\
  =========                 |
  \\      /  F ield         | OpenFOAM: The Open Source CFD Toolbox
   \\    /   O peration     | Website:  https://openfoam.org
    \\  /    A nd           | Version:  12
     \\/     M anipulation  |
\*---------------------------------------------------------------------------*/
FoamFile
{
    format      ascii;
    class       volScalarField;
    location    "100";
    object      k;
}
// * * * * * * * * * * * * * * * * * * * * * * * * * * * * * * * * * * * * * //

dimensions      [0 2 -2 0 0 0 0];

internalField   nonuniform List<scalar> 
12225
(
0.362814
0.344002
0.32773
0.30984
0.29537
0.283528
0.275457
0.270316
0.270359
0.271938
0.276095
0.280825
0.290012
0.296017
0.307225
0.313169
0.326347
0.328581
0.440193
0.468696
0.461605
0.448378
0.450367
0.458343
0.474455
0.498879
0.524368
0.552653
0.580951
0.606993
0.634528
0.655135
0.681605
0.694912
0.723889
0.728274
0.390546
0.417868
0.42023
0.416824
0.411632
0.407808
0.408017
0.41006
0.414534
0.421552
0.4308
0.439966
0.451452
0.461645
0.473519
0.484693
0.495138
0.509506
0.377546
0.38698
0.391407
0.391342
0.390222
0.387897
0.385663
0.384086
0.382884
0.382911
0.383382
0.384429
0.386364
0.388611
0.391132
0.394632
0.397178
0.402231
0.374562
0.376089
0.378413
0.378665
0.378263
0.377204
0.375489
0.373736
0.37201
0.370454
0.369258
0.368121
0.367392
0.366857
0.366488
0.366488
0.366563
0.367092
0.373815
0.372709
0.372645
0.372383
0.371761
0.370814
0.369552
0.368079
0.366568
0.364972
0.363521
0.362061
0.360746
0.359536
0.358397
0.357459
0.356489
0.355898
0.373783
0.371742
0.370386
0.369286
0.368234
0.367112
0.365913
0.364583
0.363234
0.361802
0.360413
0.359015
0.357663
0.356371
0.355105
0.353957
0.352789
0.35182
0.37382
0.37156
0.369635
0.367976
0.3665
0.365106
0.363773
0.362426
0.361102
0.35976
0.35844
0.357132
0.355847
0.354605
0.353379
0.352227
0.351076
0.350037
0.373832
0.371553
0.369449
0.367525
0.365776
0.364152
0.362643
0.361196
0.359812
0.358467
0.35716
0.355891
0.354652
0.353456
0.352285
0.351171
0.350072
0.34905
0.373831
0.37156
0.369418
0.367405
0.365528
0.363771
0.362131
0.360582
0.359117
0.357722
0.356386
0.355107
0.353874
0.352693
0.35155
0.350459
0.349397
0.348399
0.373829
0.371561
0.369413
0.367378
0.365458
0.363645
0.361936
0.360322
0.358795
0.357348
0.355972
0.354663
0.353413
0.352222
0.351078
0.349991
0.348941
0.347952
0.373828
0.371559
0.369409
0.367371
0.365439
0.363608
0.361875
0.360232
0.358675
0.357198
0.355794
0.354461
0.353191
0.351984
0.35083
0.349734
0.348682
0.347688
0.373827
0.371557
0.369405
0.367365
0.36543
0.363593
0.36185
0.360196
0.358624
0.357131
0.355712
0.354362
0.353078
0.351857
0.350692
0.349585
0.348527
0.347524
0.373827
0.371555
0.369402
0.36736
0.365423
0.363583
0.361837
0.360177
0.358599
0.357099
0.355672
0.354314
0.353021
0.35179
0.350617
0.349501
0.348436
0.347423
0.373826
0.371553
0.369399
0.367355
0.365416
0.363575
0.361826
0.360164
0.358584
0.357081
0.35565
0.354289
0.352992
0.351757
0.350579
0.349458
0.348388
0.347369
0.373826
0.371552
0.369396
0.367351
0.365411
0.363568
0.361818
0.360154
0.358572
0.357067
0.355635
0.354272
0.352973
0.351736
0.350556
0.349432
0.34836
0.347338
0.373825
0.371551
0.369394
0.367348
0.365406
0.363562
0.361811
0.360146
0.358563
0.357056
0.355623
0.354258
0.352958
0.351719
0.350539
0.349413
0.348339
0.347315
0.373825
0.371551
0.369393
0.367346
0.365404
0.363559
0.361806
0.36014
0.358556
0.357049
0.355614
0.354248
0.352947
0.351707
0.350526
0.349399
0.348324
0.347299
0.373825
0.37155
0.369393
0.367346
0.365403
0.363557
0.361804
0.360138
0.358553
0.357045
0.35561
0.354244
0.352942
0.351701
0.350519
0.349391
0.348316
0.34729
0.373825
0.371551
0.369394
0.367346
0.365404
0.363559
0.361807
0.36014
0.358557
0.357048
0.355614
0.354247
0.352946
0.351705
0.350524
0.349395
0.348321
0.347294
0.373825
0.371552
0.369395
0.367349
0.365407
0.363564
0.361812
0.360147
0.358563
0.357058
0.355624
0.354259
0.352959
0.351721
0.35054
0.349415
0.348341
0.347318
0.373826
0.371553
0.369397
0.367352
0.365413
0.363571
0.361823
0.360163
0.358585
0.357085
0.355659
0.354302
0.353011
0.351781
0.350609
0.349491
0.348426
0.347408
0.373826
0.371554
0.369399
0.36736
0.365429
0.363603
0.361876
0.360241
0.358693
0.357223
0.355827
0.354497
0.353232
0.352024
0.350873
0.34977
0.34872
0.347711
0.373828
0.371551
0.369412
0.367417
0.365556
0.36382
0.36219
0.360652
0.359191
0.357796
0.35646
0.355176
0.353941
0.352751
0.351607
0.350504
0.349445
0.348421
0.373824
0.371554
0.369604
0.367893
0.366339
0.364893
0.363496
0.362124
0.360763
0.359416
0.358084
0.356774
0.355493
0.354244
0.353036
0.351863
0.350743
0.349655
0.373788
0.371991
0.371112
0.370265
0.369361
0.368313
0.36705
0.365632
0.364124
0.362578
0.361034
0.359526
0.358078
0.356687
0.355387
0.354147
0.353015
0.351929
0.374338
0.375569
0.377777
0.377861
0.377291
0.375889
0.373838
0.371645
0.369508
0.367485
0.365666
0.364084
0.362711
0.361533
0.360607
0.359812
0.359282
0.358788
0.379003
0.394321
0.398268
0.396585
0.392549
0.387611
0.383648
0.380456
0.378266
0.376848
0.376486
0.376727
0.377397
0.378662
0.380402
0.382373
0.384764
0.38706
0.408413
0.427547
0.422413
0.411059
0.402228
0.397919
0.398578
0.401032
0.40598
0.412993
0.420926
0.429738
0.43872
0.448049
0.457133
0.466346
0.475075
0.483895
0.366043
0.35341
0.341987
0.330207
0.318984
0.30838
0.299411
0.291671
0.285402
0.280326
0.276673
0.27385
0.27229
0.271142
0.271168
0.271425
0.272114
0.273297
0.0118835
0.0344808
0.0516556
0.0667646
0.0803721
0.0927676
0.104137
0.114306
0.122716
0.128162
0.12822
0.118099
0.117894
0.121992
0.128331
0.135859
0.143616
0.150158
0.154171
0.157701
0.166691
0.148441
0.163853
0.177272
0.192192
0.207965
0.224619
0.241954
0.259946
0.278388
0.297251
0.316341
0.335649
0.355
0.374401
0.393705
0.412943
0.431991
0.450904
0.469577
0.488082
0.506329
0.524392
0.542193
0.559807
0.577166
0.594342
0.611278
0.62804
0.644576
0.660948
0.677109
0.693113
0.708919
0.724569
0.74003
0.755336
0.770461
0.785428
0.800217
0.814843
0.829292
0.843562
0.857652
0.871543
0.885256
0.898761
0.912102
0.925231
0.938214
0.95099
0.963646
0.976101
0.988471
1.00065
1.01278
1.02474
1.03669
1.04849
1.06031
1.07198
1.08364
1.09503
1.1062
1.11659
1.12582
1.12993
1.14897
1.16497
1.1758
1.18878
1.20188
1.21624
1.22755
1.24093
1.25069
1.25797
1.25698
1.26756
1.29216
1.29385
1.31587
1.3175
1.33965
1.34612
1.35736
1.36675
1.3758
1.38366
1.38557
1.3925
1.40974
1.40732
1.41136
1.41574
1.41934
1.42772
1.42518
1.42314
1.42596
1.42027
1.41523
1.40745
1.39835
1.38747
1.37498
1.36079
1.3449
1.32728
1.30802
1.28717
1.26488
1.24135
1.21615
1.18953
1.16187
1.13331
1.10408
1.07431
1.04404
1.01384
0.984001
0.953329
0.926795
0.906528
0.887325
0.868297
0.84939
0.830706
0.812252
0.794185
0.776369
0.758588
0.741235
0.724545
0.708105
0.692095
0.67649
0.66137
0.646813
0.63286
0.61945
0.606562
0.594201
0.582383
0.571077
0.560275
0.549961
0.540128
0.530742
0.521797
0.513224
0.505076
0.497072
0.489679
0.481584
0.47506
0.465031
0.458652
0.432644
0.026944
0.0626606
0.0869505
0.105351
0.120959
0.134849
0.147451
0.158956
0.169377
0.178494
0.186055
0.192434
0.200796
0.211312
0.223603
0.237183
0.25149
0.267125
0.284893
0.306783
0.334814
0.358013
0.382033
0.40725
0.434237
0.462697
0.492425
0.523271
0.55509
0.587708
0.621008
0.654845
0.689116
0.723689
0.758473
0.793356
0.828269
0.863128
0.897891
0.932494
0.966918
1.00112
1.03509
1.06881
1.10227
1.13545
1.16836
1.20099
1.23336
1.26544
1.29726
1.3288
1.36006
1.39105
1.42177
1.45219
1.48233
1.51217
1.5417
1.57093
1.59983
1.62841
1.65665
1.68457
1.71209
1.73919
1.76585
1.79207
1.81783
1.84312
1.86794
1.89228
1.91615
1.93956
1.96249
1.98497
2.00699
2.02861
2.0498
2.07062
2.09106
2.11116
2.13091
2.15034
2.16943
2.18825
2.20696
2.22675
2.24534
2.26413
2.2834
2.30287
2.3225
2.34205
2.36177
2.38126
2.40059
2.4198
2.4406
2.46157
2.48077
2.50241
2.52178
2.54301
2.56172
2.58059
2.59869
2.61672
2.63405
2.65077
2.66847
2.68481
2.6982
2.71302
2.72616
2.73833
2.74859
2.75348
2.76463
2.76716
2.76978
2.77262
2.76972
2.76411
2.75537
2.74344
2.72821
2.70953
2.68715
2.6611
2.63144
2.59826
2.56171
2.52202
2.47944
2.43432
2.38694
2.33764
2.28676
2.23456
2.18129
2.12762
2.07361
2.01925
1.96542
1.91193
1.8589
1.8066
1.75526
1.70503
1.65602
1.60794
1.56044
1.51418
1.46957
1.42663
1.38515
1.34493
1.30615
1.26895
1.23336
1.19921
1.16645
1.13512
1.1052
1.07662
1.04934
1.02334
0.998575
0.974988
0.952535
0.931146
0.910785
0.891307
0.872852
0.854743
0.838459
0.819852
0.806505
0.767784
0.0490061
0.0961743
0.125349
0.147229
0.165807
0.182554
0.198211
0.213235
0.227964
0.242665
0.257628
0.273278
0.290292
0.308969
0.329381
0.351471
0.37513
0.400318
0.427254
0.456394
0.487642
0.519381
0.552149
0.586231
0.621756
0.658665
0.696846
0.736143
0.776398
0.817473
0.859249
0.901599
0.94441
0.987562
1.03096
1.07449
1.11809
1.16168
1.20521
1.24863
1.2919
1.33499
1.37788
1.42055
1.46299
1.50519
1.54714
1.58885
1.6303
1.6715
1.71245
1.75314
1.79357
1.83373
1.87363
1.91324
1.95257
1.99159
2.03031
2.06869
2.10673
2.14441
2.1817
2.21859
2.25504
2.29104
2.32655
2.36155
2.39602
2.42995
2.46331
2.49608
2.52824
2.55979
2.59072
2.621
2.65064
2.67963
2.70796
2.73565
2.76269
2.78907
2.81481
2.83991
2.86438
2.88827
2.91165
2.93466
2.95711
2.97949
3.00161
3.02355
3.04523
3.06655
3.08758
3.10825
3.12854
3.14863
3.16874
3.18864
3.20838
3.22846
3.24789
3.26758
3.28652
3.30545
3.32394
3.34231
3.36019
3.37786
3.39525
3.41145
3.42697
3.44241
3.4564
3.46911
3.48018
3.48809
3.49569
3.49868
3.50011
3.49952
3.49499
3.48684
3.47481
3.45869
3.43829
3.41347
3.38411
3.35021
3.31183
3.26911
3.22223
3.17148
3.11717
3.05966
2.99934
2.93658
2.87175
2.80519
2.73727
2.66865
2.60004
2.53168
2.46382
2.39649
2.32986
2.26419
2.19972
2.13663
2.07506
2.01499
1.95641
1.89951
1.84445
1.79133
1.73995
1.68979
1.64136
1.59484
1.55025
1.50732
1.46605
1.42652
1.38872
1.35254
1.31795
1.28495
1.25348
1.22347
1.19488
1.16763
1.1417
1.11696
1.09348
1.0709
1.05002
1.02864
1.01335
0.979219
0.0740865
0.131424
0.1657
0.191463
0.21336
0.233208
0.251981
0.270323
0.288732
0.307618
0.327336
0.348201
0.37049
0.394355
0.419848
0.446946
0.475601
0.505791
0.537605
0.571192
0.606565
0.64349
0.681906
0.72179
0.763113
0.805794
0.84972
0.894761
0.940807
0.98774
1.03544
1.08379
1.13268
1.18199
1.23162
1.28148
1.3315
1.3816
1.43173
1.48184
1.53189
1.58184
1.63168
1.68137
1.7309
1.78025
1.82942
1.8784
1.92717
1.97575
2.02411
2.07225
2.12017
2.16786
2.21532
2.26252
2.30946
2.35611
2.40248
2.44852
2.49423
2.53957
2.58452
2.62905
2.67313
2.71672
2.75979
2.80231
2.84423
2.88553
2.92617
2.96612
3.00534
3.0438
3.08147
3.11832
3.15433
3.18946
3.22371
3.25704
3.28945
3.32091
3.35143
3.38099
3.40961
3.43731
3.46415
3.49018
3.51546
3.54012
3.56411
3.58748
3.61019
3.63221
3.65358
3.67431
3.69444
3.71408
3.73333
3.75223
3.77084
3.78922
3.80717
3.8249
3.84219
3.85924
3.87591
3.8923
3.90828
3.92391
3.93899
3.95327
3.96698
3.98009
3.99196
4.00248
4.01133
4.0176
4.02119
4.02221
4.02121
4.01727
4.00964
3.99807
3.98226
3.96193
3.93687
3.90688
3.87187
3.83182
3.78678
3.73689
3.68237
3.6235
3.56064
3.49417
3.4245
3.35203
3.27722
3.2006
3.12272
3.04424
2.96575
2.8876
2.81003
2.73319
2.65727
2.58253
2.50919
2.43746
2.36746
2.29928
2.23298
2.16865
2.10637
2.04622
1.98813
1.93192
1.8777
1.82555
1.77547
1.72706
1.68038
1.63561
1.59275
1.55161
1.51222
1.4746
1.43865
1.40433
1.37161
1.34041
1.3107
1.2824
1.25553
1.22993
1.20605
1.1828
1.16489
1.13483
0.100287
0.166461
0.206313
0.23625
0.261612
0.284543
0.306206
0.32737
0.348616
0.370412
0.393146
0.417121
0.44256
0.469592
0.498275
0.528616
0.560611
0.594264
0.629619
0.666733
0.705634
0.746276
0.788596
0.832515
0.877954
0.924815
0.972995
1.02238
1.07287
1.12434
1.17668
1.22977
1.2835
1.33777
1.39248
1.44756
1.50292
1.5585
1.61423
1.67008
1.72599
1.78192
1.83784
1.89371
1.94953
2.00526
2.06089
2.11641
2.17181
2.22707
2.28218
2.33714
2.39194
2.44656
2.50099
2.55522
2.60924
2.66301
2.71653
2.76976
2.82269
2.87526
2.92746
2.97925
3.03057
3.0814
3.13168
3.18137
3.23042
3.27877
3.32637
3.37318
3.41915
3.46421
3.50832
3.55143
3.59349
3.63446
3.6743
3.71296
3.75041
3.78662
3.82158
3.85526
3.88767
3.91882
3.94874
3.97747
4.00506
4.03156
4.057
4.08137
4.1047
4.12698
4.14825
4.16856
4.18797
4.20656
4.22444
4.24165
4.25827
4.27431
4.28975
4.30468
4.31906
4.33298
4.34641
4.35941
4.37193
4.38395
4.39534
4.40599
4.41596
4.42519
4.43326
4.43998
4.4448
4.44709
4.44706
4.44502
4.44041
4.43269
4.42133
4.40595
4.3862
4.36175
4.33234
4.29776
4.25788
4.21265
4.16211
4.10639
4.0457
3.98034
3.91065
3.83702
3.75992
3.67985
3.59738
3.51314
3.42772
3.34173
3.25572
3.17008
3.08509
3.00096
2.91793
2.83625
2.75613
2.67779
2.60137
2.52697
2.45468
2.38459
2.31674
2.25117
2.18787
2.12675
2.06782
2.01111
1.95659
1.90412
1.85365
1.80522
1.7588
1.71404
1.67113
1.63009
1.5908
1.55323
1.51737
1.48314
1.45052
1.41946
1.38998
1.36203
1.33587
1.31106
1.29063
1.26231
0.126064
0.200318
0.245658
0.279768
0.308547
0.334425
0.358721
0.382298
0.405802
0.429743
0.454544
0.480534
0.50796
0.536989
0.567719
0.600201
0.634463
0.670523
0.708406
0.748131
0.789705
0.833103
0.878274
0.925143
0.973628
1.02363
1.07505
1.12778
1.18172
1.23676
1.29279
1.3497
1.4074
1.46579
1.52478
1.5843
1.64425
1.70459
1.76524
1.82615
1.88726
1.94854
2.00994
2.07142
2.13297
2.19455
2.25613
2.31771
2.37926
2.44077
2.50222
2.5636
2.62491
2.68612
2.74721
2.80818
2.869
2.92964
2.99009
3.05031
3.11026
3.16991
3.22922
3.28814
3.34662
3.40461
3.46204
3.51885
3.57498
3.63037
3.68494
3.73862
3.79134
3.84303
3.89361
3.94302
3.99118
4.03803
4.08351
4.12755
4.17009
4.21111
4.25054
4.28837
4.32457
4.35916
4.39213
4.42351
4.45332
4.48162
4.50841
4.53371
4.55754
4.57993
4.60092
4.62056
4.63893
4.6561
4.67217
4.68719
4.70124
4.71435
4.72657
4.73795
4.74852
4.75835
4.76748
4.77598
4.78384
4.79108
4.79758
4.8032
4.80798
4.81205
4.81501
4.81627
4.8157
4.81339
4.80912
4.80264
4.79357
4.78143
4.76576
4.74614
4.72219
4.69355
4.65991
4.62102
4.57672
4.52692
4.47162
4.41095
4.34508
4.2743
4.19896
4.1195
4.03644
3.9504
3.86199
3.77185
3.68058
3.58876
3.49691
3.40545
3.31469
3.22489
3.1363
3.04919
2.96377
2.88024
2.79876
2.71946
2.64243
2.56773
2.49543
2.42554
2.35807
2.29295
2.23019
2.16976
2.11163
2.05572
2.00198
1.9504
1.90094
1.85345
1.80793
1.76435
1.7225
1.68241
1.64409
1.60746
1.57253
1.53926
1.50767
1.47778
1.44978
1.42355
1.401
1.3731
0.150566
0.23189
0.282348
0.320423
0.352451
0.381097
0.407802
0.433509
0.458911
0.484561
0.510912
0.538333
0.567112
0.597462
0.629534
0.663423
0.699189
0.736865
0.776473
0.818016
0.861487
0.906855
0.954073
1.00307
1.05378
1.1061
1.15994
1.2152
1.27179
1.32961
1.38855
1.44853
1.50946
1.57124
1.63379
1.69703
1.7609
1.82531
1.89021
1.95554
2.02124
2.08726
2.15356
2.2201
2.28683
2.35374
2.42079
2.48796
2.55522
2.62257
2.68997
2.75742
2.8249
2.89238
2.95986
3.02731
3.0947
3.16201
3.22921
3.29627
3.36313
3.42976
3.49611
3.56213
3.62774
3.69288
3.75749
3.82148
3.88477
3.94729
4.00894
4.06962
4.12925
4.18774
4.24498
4.30089
4.35536
4.40831
4.45966
4.50931
4.55719
4.60323
4.64738
4.68958
4.72979
4.76801
4.80421
4.8384
4.87059
4.90081
4.92909
4.95542
4.97983
5.00236
5.02304
5.04195
5.05914
5.0747
5.08871
5.10124
5.11236
5.12213
5.13065
5.13795
5.14406
5.14907
5.15311
5.15624
5.15852
5.16005
5.16065
5.16008
5.15837
5.15593
5.1524
5.14743
5.14101
5.13295
5.12306
5.11107
5.09662
5.07928
5.05864
5.03425
5.00572
4.97264
4.93469
4.89156
4.84306
4.78906
4.72952
4.66451
4.59419
4.51885
4.43887
4.35475
4.26706
4.17642
4.08347
3.98883
3.89311
3.79686
3.70059
3.6047
3.50954
3.41541
3.32257
3.23129
3.14179
3.05426
2.96888
2.88576
2.805
2.72669
2.65086
2.57755
2.50673
2.4384
2.37253
2.30908
2.24803
2.18929
2.13283
2.0786
2.02658
1.97669
1.92887
1.88309
1.83921
1.7972
1.757
1.71847
1.68169
1.64663
1.61332
1.58183
1.5523
1.52475
1.5004
1.47231
0.173075
0.260336
0.315337
0.357008
0.392021
0.423218
0.452137
0.479774
0.506862
0.533984
0.561623
0.590176
0.619973
0.651268
0.684255
0.719071
0.755806
0.794514
0.835223
0.877938
0.922645
0.969313
1.01789
1.06833
1.12054
1.17446
1.22999
1.28706
1.34557
1.40543
1.46657
1.52889
1.59231
1.65676
1.72215
1.78841
1.85548
1.92327
1.99174
2.06081
2.13043
2.20055
2.27112
2.3421
2.41344
2.48511
2.55709
2.62933
2.70183
2.77454
2.84746
2.92057
2.99383
3.06725
3.14078
3.21442
3.28812
3.36187
3.43562
3.50933
3.58297
3.65647
3.72978
3.80283
3.87555
3.94786
4.01968
4.09091
4.16146
4.23123
4.3001
4.36797
4.43471
4.50022
4.56436
4.62703
4.6881
4.74746
4.80498
4.86057
4.91412
4.96553
5.01473
5.06163
5.10619
5.14836
5.18811
5.22542
5.26028
5.29272
5.32274
5.35034
5.37555
5.39839
5.41891
5.43717
5.45324
5.46718
5.47909
5.48903
5.49707
5.50328
5.50782
5.51077
5.51198
5.51168
5.51006
5.50718
5.5031
5.49789
5.49149
5.48388
5.47514
5.46537
5.45445
5.44227
5.42873
5.41371
5.39703
5.37844
5.35761
5.33418
5.30776
5.27791
5.24423
5.20629
5.16374
5.11626
5.06358
5.00554
4.94206
4.87317
4.79904
4.71996
4.63632
4.54862
4.45745
4.36344
4.26722
4.16937
4.07048
3.97109
3.87167
3.77265
3.67437
3.57714
3.48126
3.38699
3.29454
3.20412
3.11588
3.02995
2.94644
2.86542
2.78693
2.711
2.63763
2.5668
2.49849
2.43267
2.36929
2.3083
2.24965
2.19328
2.13917
2.08726
2.0375
1.98984
1.94419
1.90048
1.85866
1.81865
1.78046
1.74396
1.70927
1.67644
1.64561
1.61686
1.59095
1.56238
0.193013
0.285044
0.343904
0.388705
0.426369
0.459871
0.490809
0.520221
0.548863
0.577335
0.606137
0.635689
0.666344
0.698388
0.732047
0.767488
0.804831
0.84415
0.885488
0.928859
0.974253
1.02164
1.07099
1.12223
1.17532
1.23017
1.28673
1.34491
1.40464
1.46584
1.52845
1.59238
1.65758
1.72395
1.79144
1.85999
1.92951
1.99995
2.07125
2.14334
2.21617
2.28969
2.36385
2.4386
2.5139
2.58971
2.666
2.74274
2.8199
2.89746
2.9754
3.05368
3.1323
3.21122
3.29043
3.36989
3.44959
3.52947
3.60951
3.68966
3.76987
3.85007
3.93021
4.0102
4.08997
4.16942
4.24845
4.32697
4.40484
4.48196
4.55819
4.6334
4.70745
4.7802
4.8515
4.9212
4.98917
5.05524
5.11929
5.18117
5.24076
5.29792
5.35256
5.40457
5.45387
5.50038
5.54407
5.58487
5.62279
5.6578
5.68991
5.71911
5.74543
5.76887
5.78949
5.80733
5.82246
5.83495
5.84487
5.8523
5.85733
5.85988
5.86032
5.85864
5.85483
5.84907
5.84147
5.83215
5.82121
5.80875
5.79479
5.77941
5.7627
5.74474
5.72554
5.70509
5.68333
5.6602
5.63556
5.60923
5.58094
5.5504
5.51725
5.48109
5.44151
5.3981
5.35048
5.2983
5.24129
5.17923
5.11201
5.03964
4.96229
4.88023
4.79382
4.70354
4.60997
4.51372
4.4154
4.31555
4.21473
4.11343
4.01211
3.9112
3.81103
3.71192
3.61418
3.51807
3.42381
3.33157
3.24151
3.15377
3.06844
2.98561
2.90532
2.82759
2.75242
2.67981
2.60973
2.54216
2.47705
2.41436
2.35403
2.29601
2.24027
2.18676
2.13544
2.08625
2.03911
1.99398
1.95079
1.90948
1.87005
1.83243
1.79665
1.76273
1.7308
1.70098
1.67371
1.64452
0.209967
0.305637
0.367632
0.415052
0.454994
0.490524
0.523279
0.554319
0.584411
0.614159
0.644069
0.674567
0.706017
0.738719
0.77292
0.808806
0.846519
0.886153
0.927767
0.971386
1.01701
1.06463
1.11422
1.16572
1.21909
1.27427
1.33121
1.38985
1.45013
1.51199
1.57536
1.64019
1.70642
1.77398
1.84282
1.91288
1.9841
2.05643
2.12979
2.20415
2.27944
2.35562
2.43264
2.51044
2.589
2.66827
2.74823
2.82882
2.91004
2.99185
3.07423
3.15716
3.24061
3.32456
3.40899
3.49387
3.57916
3.66483
3.75083
3.83712
3.92364
4.01032
4.09709
4.18386
4.27055
4.35705
4.44324
4.52901
4.61422
4.69874
4.78241
4.86508
4.94658
5.02675
5.10542
5.18241
5.25753
5.33063
5.40152
5.47003
5.53601
5.5993
5.65976
5.71727
5.77171
5.82298
5.871
5.91572
5.95708
5.99507
6.02966
6.06085
6.08864
6.11304
6.13408
6.15182
6.1663
6.1776
6.18579
6.19082
6.19292
6.19214
6.18859
6.18234
6.17347
6.16211
6.14838
6.13241
6.11432
6.09424
6.07227
6.04853
6.02315
5.99625
5.96793
5.93823
5.90721
5.87486
5.84112
5.80589
5.769
5.73022
5.68926
5.64579
5.59941
5.54974
5.49639
5.43904
5.3774
5.31126
5.24046
5.16497
5.08493
5.00056
4.91219
4.82022
4.72522
4.6278
4.52852
4.42785
4.32629
4.22431
4.12235
4.02078
3.91995
3.82017
3.72175
3.62497
3.53002
3.43706
3.34623
3.25767
3.17149
3.08777
3.00654
2.92783
2.85164
2.77798
2.70682
2.63814
2.57191
2.50807
2.44659
2.38742
2.33051
2.27584
2.22334
2.17298
2.12469
2.07843
2.03413
1.99176
1.95129
1.9127
1.876
1.84123
1.80839
1.77762
1.74917
1.71935
0.2237
0.321964
0.386379
0.435894
0.477718
0.514974
0.549324
0.58183
0.613262
0.644217
0.675194
0.706611
0.73883
0.772152
0.806827
0.843054
0.880984
0.920727
0.962355
1.00591
1.05141
1.09885
1.14822
1.19948
1.25262
1.30758
1.36432
1.42281
1.48301
1.54486
1.60832
1.67335
1.7399
1.80792
1.87737
1.9482
2.02036
2.0938
2.16847
2.24433
2.32132
2.3994
2.47853
2.55866
2.63976
2.72178
2.8047
2.88849
2.97311
3.05854
3.14476
3.23174
3.31947
3.40791
3.49705
3.58686
3.6773
3.76833
3.8599
3.95196
4.04446
4.13731
4.23044
4.32376
4.41716
4.51054
4.60375
4.69668
4.78916
4.88105
4.97217
5.06234
5.15137
5.23907
5.32525
5.40968
5.49217
5.57252
5.6505
5.72593
5.79861
5.86835
5.93497
5.99833
6.05827
6.11467
6.16742
6.21642
6.26162
6.30297
6.34043
6.37399
6.40363
6.42935
6.45118
6.46915
6.48332
6.49374
6.50041
6.50344
6.50299
6.49905
6.49171
6.48107
6.46724
6.45032
6.43045
6.40776
6.38238
6.35446
6.32417
6.29163
6.25705
6.22057
6.18238
6.1426
6.10137
6.05875
6.01481
5.96952
5.92285
5.87465
5.82472
5.77286
5.71868
5.66184
5.60202
5.5389
5.47217
5.40162
5.32718
5.24873
5.16641
5.08036
4.99082
4.89804
4.80273
4.70533
4.60621
4.50588
4.40479
4.30335
4.20197
4.101
4.00076
3.90149
3.8036
3.70734
3.61286
3.52029
3.42977
3.34142
3.25538
3.17171
3.09045
3.01161
2.9352
2.86124
2.78972
2.7206
2.65387
2.58948
2.52739
2.46758
2.40999
2.35459
2.30133
2.25019
2.20109
2.15401
2.1089
2.06571
2.02444
1.98507
1.94762
1.9121
1.87854
1.84695
1.81749
1.7871
0.234135
0.334065
0.400226
0.451321
0.494619
0.533278
0.56897
0.602754
0.635389
0.667458
0.699442
0.731742
0.764704
0.798617
0.833725
0.870225
0.908273
0.947983
0.989441
1.0327
1.07779
1.12473
1.17351
1.22414
1.27659
1.33084
1.38688
1.44468
1.50421
1.56547
1.62841
1.69299
1.7592
1.827
1.89636
1.96725
2.03962
2.11345
2.1887
2.26532
2.34328
2.42253
2.50304
2.58477
2.66769
2.75177
2.83697
2.92327
3.01063
3.09904
3.18847
3.2789
3.37029
3.46265
3.55596
3.65016
3.74524
3.84115
3.93783
4.03524
4.1333
4.23195
4.33109
4.43063
4.53046
4.63044
4.73045
4.83034
4.92993
5.02905
5.12751
5.22512
5.32165
5.41689
5.5106
5.60256
5.69251
5.78023
5.86547
5.948
6.02758
6.104
6.17705
6.24653
6.31226
6.37408
6.43186
6.48548
6.53484
6.57988
6.62055
6.65681
6.68863
6.71601
6.73895
6.75749
6.77166
6.7815
6.78704
6.78843
6.7857
6.77887
6.76801
6.75323
6.73461
6.71227
6.68634
6.65695
6.62424
6.58838
6.54955
6.50794
6.46375
6.41721
6.36854
6.31795
6.26566
6.21184
6.15666
6.10022
6.04263
5.98383
5.92372
5.86203
5.79831
5.73273
5.6651
5.59519
5.52278
5.4476
5.36962
5.2887
5.20464
5.11753
5.02748
4.93459
4.83988
4.74357
4.64593
4.54733
4.44814
4.34872
4.24942
4.15054
4.05236
3.95504
3.859
3.76448
3.67164
3.58061
3.4915
3.40441
3.31953
3.2369
3.15654
3.07845
3.00266
2.92919
2.85804
2.78919
2.72261
2.65827
2.59616
2.53623
2.47845
2.42279
2.36922
2.31768
2.26816
2.2206
2.17498
2.13127
2.08945
2.04952
2.01149
1.97539
1.94122
1.90894
1.87864
1.84778
0.241305
0.342102
0.40939
0.461578
0.505947
0.545675
0.582434
0.617275
0.650941
0.683994
0.716888
0.750003
0.783657
0.81812
0.85362
0.890343
0.92844
0.968025
1.00919
1.05199
1.09648
1.14268
1.19061
1.24029
1.29171
1.34488
1.39979
1.45645
1.51486
1.57503
1.63695
1.70054
1.76583
1.83279
1.90144
1.97175
2.0437
2.11727
2.19243
2.26915
2.3474
2.42715
2.50837
2.59104
2.67512
2.76059
2.84742
2.93558
3.02506
3.11582
3.20784
3.30109
3.39553
3.49121
3.5881
3.68615
3.78532
3.88557
3.98684
4.08908
4.19223
4.2962
4.40091
4.50625
4.6121
4.71832
4.82478
4.9313
5.0377
5.1438
5.24938
5.35422
5.45808
5.56072
5.66187
5.76128
5.85866
5.95375
6.04627
6.13594
6.22251
6.30571
6.3853
6.46105
6.53274
6.60018
6.6632
6.72164
6.7754
6.82437
6.86849
6.90769
6.94195
6.97124
6.99557
7.01494
7.02937
7.03892
7.04363
7.04364
7.03894
7.02951
7.01539
6.9967
6.9735
6.94591
6.91404
6.87802
6.83801
6.79417
6.7467
6.69581
6.64172
6.58472
6.52507
6.46307
6.39899
6.33313
6.2658
6.19715
6.1271
6.05574
5.98349
5.91042
5.83736
5.76347
5.68853
5.61233
5.53468
5.4553
5.37432
5.29091
5.20529
5.1175
5.02756
4.93533
4.84183
4.74715
4.6515
4.55518
4.45848
4.3617
4.26515
4.16908
4.07372
3.97905
3.88615
3.79479
3.705
3.61686
3.53045
3.44585
3.36321
3.28262
3.20412
3.1277
3.05336
2.98121
2.91121
2.84335
2.77761
2.71396
2.65241
2.59294
2.5355
2.48007
2.42662
2.37513
2.32556
2.27789
2.2321
2.18817
2.14607
2.10582
2.06743
2.03092
1.99628
1.96346
1.93249
1.90128
0.245399
0.346338
0.414183
0.467004
0.51206
0.552522
0.590062
0.625717
0.66021
0.69408
0.727753
0.761576
0.79584
0.830787
0.866625
0.903525
0.941626
0.981038
1.02185
1.06412
1.1079
1.15323
1.20014
1.24868
1.29887
1.35073
1.40424
1.45943
1.51635
1.57505
1.6356
1.69786
1.76186
1.82762
1.89515
1.96443
2.03548
2.10828
2.18282
2.25908
2.33705
2.41671
2.49804
2.58102
2.66562
2.75184
2.83965
2.92903
3.01996
3.11243
3.20641
3.30187
3.3988
3.49725
3.59715
3.69847
3.80116
3.90516
4.01041
4.1169
4.22456
4.3333
4.44301
4.5536
4.66494
4.77689
4.8893
5.00198
5.11475
5.2274
5.33969
5.4514
5.56226
5.67198
5.7803
5.88691
5.9915
6.09377
6.19341
6.2901
6.38356
6.47347
6.55957
6.64157
6.71924
6.79233
6.86063
6.92398
6.98221
7.03521
7.08289
7.12517
7.162
7.19335
7.21921
7.23956
7.25444
7.26386
7.26787
7.26676
7.26035
7.24852
7.23136
7.20893
7.18132
7.14861
7.1109
7.06832
7.02103
6.96918
6.91298
6.85265
6.78844
6.72063
6.64958
6.57565
6.49915
6.42023
6.33913
6.25657
6.17326
6.09002
6.00665
5.92362
5.84
5.75633
5.67265
5.58889
5.50492
5.42051
5.33552
5.24964
5.16274
5.07474
4.9856
4.89531
4.80417
4.71236
4.62004
4.5274
4.43464
4.34198
4.24966
4.15787
4.06679
3.97637
3.88732
3.79968
3.71352
3.6289
3.54587
3.46442
3.38514
3.30776
3.23223
3.15852
3.08664
3.01665
2.9486
2.88248
2.81828
2.75599
2.69562
2.63718
2.58062
2.52593
2.47308
2.42207
2.37288
2.32549
2.27988
2.23604
2.19396
2.15366
2.11514
2.07842
2.04348
2.01029
1.97883
1.94742
0.246157
0.346791
0.414804
0.467916
0.513337
0.554237
0.592285
0.628509
0.663614
0.698117
0.732417
0.766825
0.801593
0.836919
0.873025
0.910066
0.948159
0.987398
1.02787
1.06964
1.11272
1.15716
1.20301
1.25034
1.29922
1.34974
1.40183
1.45554
1.51091
1.56795
1.62667
1.68714
1.74941
1.81351
1.87947
1.94731
2.01703
2.08866
2.16219
2.23761
2.31493
2.39413
2.4752
2.55813
2.64292
2.72953
2.81796
2.90819
3.0002
3.09398
3.1895
3.28673
3.38563
3.48622
3.58848
3.69238
3.79789
3.90497
4.01355
4.12365
4.23515
4.34796
4.46198
4.57711
4.69325
4.81023
4.9279
5.04607
5.16455
5.28311
5.40151
5.5195
5.63678
5.75306
5.86803
5.98136
6.09271
6.20175
6.30812
6.41148
6.5115
6.60785
6.70019
6.78822
6.87165
6.95022
7.02368
7.0918
7.15441
7.21136
7.26254
7.30784
7.34721
7.38059
7.40796
7.4293
7.44462
7.45395
7.45717
7.45514
7.44711
7.43298
7.41285
7.38676
7.35478
7.31697
7.27344
7.22428
7.16965
7.10971
7.04467
6.97473
6.90019
6.82128
6.73806
6.65111
6.56102
6.4686
6.37473
6.2796
6.1841
6.08765
5.99123
5.89533
5.80011
5.70589
5.61288
5.52111
5.43052
5.34096
5.25223
5.16407
5.07626
4.9886
4.90094
4.81317
4.72533
4.63745
4.54959
4.46181
4.37423
4.28696
4.20014
4.11393
4.02843
3.94375
3.86016
3.77779
3.69672
3.617
3.53866
3.46168
3.38639
3.31275
3.24075
3.17034
3.10148
3.03455
2.96935
2.90584
2.84398
2.78377
2.72523
2.66842
2.6133
2.55987
2.50812
2.45805
2.40967
2.36295
2.3179
2.27449
2.23275
2.19267
2.15428
2.11757
2.08252
2.04916
2.01742
1.986
0.245165
0.34503
0.41265
0.465544
0.510874
0.551792
0.589965
0.62641
0.661816
0.696679
0.731374
0.766186
0.801338
0.837
0.873398
0.910623
0.948767
0.987909
1.02813
1.06951
1.11202
1.15574
1.20072
1.24701
1.29465
1.34367
1.39413
1.44614
1.49976
1.55508
1.61213
1.67095
1.7316
1.79411
1.85855
1.92493
1.9933
2.06368
2.13609
2.21053
2.28702
2.36555
2.44613
2.52875
2.61341
2.70008
2.78877
2.87945
2.97212
3.06674
3.16331
3.2618
3.36219
3.46447
3.56862
3.67464
3.78246
3.89205
4.00333
4.11627
4.23081
4.34688
4.46439
4.58326
4.70337
4.82455
4.94663
5.06946
5.19283
5.3165
5.44022
5.56372
5.68669
5.80882
5.92977
6.04917
6.16667
6.28188
6.39443
6.50395
6.61004
6.71235
6.81051
6.90418
6.99302
7.07673
7.15502
7.22763
7.29435
7.35499
7.40941
7.45749
7.49915
7.53432
7.56297
7.58506
7.60058
7.60954
7.61193
7.60879
7.59893
7.58232
7.55901
7.52903
7.49243
7.44926
7.39961
7.34356
7.28122
7.21265
7.13802
7.05759
6.97171
6.88079
6.78566
6.68649
6.58392
6.4789
6.37107
6.26155
6.15116
6.04042
5.93013
5.82099
5.71352
5.60823
5.50546
5.4054
5.3081
5.21346
5.12128
5.03129
4.94316
4.85658
4.77126
4.68696
4.6035
4.52075
4.43861
4.35701
4.27593
4.1954
4.11545
4.03616
3.9576
3.87984
3.80301
3.72721
3.65251
3.57894
3.50652
3.43529
3.36536
3.29675
3.22945
3.16346
3.09873
3.03545
2.97361
2.9132
2.85421
2.7966
2.74059
2.68609
2.63306
2.58149
2.53137
2.48273
2.43559
2.38996
2.34583
2.30322
2.26212
2.22256
2.18454
2.14807
2.11316
2.07986
2.04805
2.01679
0.242125
0.340258
0.406992
0.459315
0.504275
0.544998
0.583139
0.619699
0.655343
0.690545
0.725653
0.760925
0.796557
0.832698
0.869465
0.906977
0.945321
0.984564
1.02476
1.06593
1.10808
1.15129
1.19563
1.2412
1.28805
1.33624
1.38582
1.43688
1.48948
1.5437
1.59962
1.6573
1.71681
1.77821
1.84155
1.90688
1.97427
2.04373
2.1153
2.18901
2.26487
2.34289
2.42307
2.50542
2.58992
2.67657
2.76536
2.85627
2.94929
3.04439
3.14155
3.24075
3.34197
3.44518
3.55037
3.65752
3.76659
3.87755
3.99035
4.10495
4.22132
4.33939
4.45907
4.58026
4.70286
4.82674
4.95174
5.07771
5.20444
5.3317
5.45923
5.58675
5.71395
5.84048
5.96598
6.09008
6.21238
6.33248
6.44996
6.56441
6.67541
6.78258
6.8855
6.98379
7.07708
7.16503
7.24732
7.32362
7.3937
7.45733
7.51432
7.56455
7.6079
7.64431
7.67369
7.69602
7.71124
7.71935
7.72064
7.71605
7.70402
7.68461
7.6578
7.62361
7.58202
7.5331
7.47687
7.41344
7.34293
7.26564
7.18174
7.09145
6.99515
6.89348
6.78624
6.67424
6.55816
6.43872
6.31651
6.19241
6.06737
5.94232
5.81821
5.69597
5.57642
5.46026
5.34803
5.24009
5.1366
5.03751
4.94262
4.85162
4.76409
4.67957
4.59765
4.51789
4.43995
4.3635
4.28828
4.21407
4.14072
4.06814
3.99628
3.92513
3.85468
3.78498
3.71606
3.64798
3.58078
3.51446
3.44905
3.38455
3.32099
3.25842
3.19682
3.13619
3.07654
3.01794
2.96042
2.90401
2.8487