/*--------------------------------*- C++ -*----------------------------------*\
  =========                 |
  \\      /  F ield         | OpenFOAM: The Open Source CFD Toolbox
   \\    /   O peration     | Website:  https://openfoam.org
    \\  /    A nd           | Version:  12
     \\/     M anipulation  |
\*---------------------------------------------------------------------------*/
FoamFile
{
    format      ascii;
    class       volScalarField;
    location    "100";
    object      nut;
}
// * * * * * * * * * * * * * * * * * * * * * * * * * * * * * * * * * * * * * //

dimensions      [0 2 -1 0 0 0 0];

internalField   nonuniform List<scalar> 
12225
(
4.14925e-05
3.93418e-05
3.74814e-05
3.54353e-05
3.37805e-05
3.24261e-05
3.15031e-05
3.0915e-05
3.09197e-05
3.11021e-05
3.1574e-05
3.21192e-05
3.31642e-05
3.38421e-05
3.51614e-05
3.57298e-05
3.74711e-05
3.67921e-05
0.000332264
0.000215128
0.000179294
0.000157636
0.000146237
0.000138158
0.000132673
0.00013174
0.000129395
0.00013018
0.000128921
0.000129575
0.000128533
0.000128685
0.000128029
0.000127436
0.000127687
0.000126274
0.000668789
0.000450525
0.000355833
0.000309732
0.000275348
0.000250988
0.000231743
0.000217155
0.000202604
0.000192043
0.000182506
0.000175038
0.000169257
0.000163358
0.00016018
0.000155022
0.000153551
0.000149094
0.000801641
0.000691557
0.000572692
0.000499924
0.000449474
0.000411837
0.000380831
0.000355833
0.000334006
0.00031454
0.000298253
0.000281358
0.000270137
0.000255561
0.00024781
0.000235459
0.000229464
0.000219185
0.000839615
0.000810125
0.000740819
0.000676284
0.000624023
0.00058124
0.000545924
0.000514375
0.000489519
0.000464176
0.000445765
0.000423706
0.000409663
0.000390284
0.000379274
0.000362312
0.000353285
0.000337899
0.000850345
0.000843261
0.000819564
0.000786466
0.00075085
0.000715778
0.000685795
0.000655985
0.000632528
0.000607309
0.000588875
0.000566937
0.00055198
0.000532614
0.000520177
0.000502916
0.000492183
0.000475992
0.000851581
0.000851013
0.000843301
0.000833453
0.000817152
0.000796893
0.000777886
0.000756642
0.000738869
0.000719003
0.000703416
0.000685387
0.000671861
0.000655525
0.000643807
0.00062884
0.000618611
0.000603962
0.000851584
0.000851811
0.000850044
0.00084745
0.000841409
0.000833746
0.000824803
0.000813392
0.000802786
0.000790388
0.000779628
0.000767385
0.000757236
0.000745501
0.000736182
0.00072503
0.000716521
0.000705202
0.000851676
0.000851527
0.000851019
0.000850338
0.000848877
0.000846164
0.000843025
0.000838283
0.000833385
0.000827319
0.000821157
0.000814687
0.00080829
0.000801357
0.000795015
0.000788111
0.000781774
0.00077471
0.000851756
0.000851384
0.000851046
0.00085063
0.000850248
0.000849364
0.000848404
0.000846771
0.000844945
0.00084251
0.000839894
0.000836754
0.00083373
0.000830062
0.000826846
0.000822765
0.000819676
0.000815003
0.000851785
0.000851357
0.000851013
0.000850612
0.00085033
0.000849903
0.000849524
0.000848924
0.000848297
0.000847383
0.000846451
0.000845154
0.000843958
0.000842306
0.000840937
0.000838952
0.000837541
0.000835229
0.000851789
0.000851359
0.000850996
0.000850605
0.000850292
0.000849938
0.000849645
0.000849278
0.000848951
0.000848498
0.00084809
0.000847495
0.000846981
0.00084622
0.000845612
0.000844681
0.000844012
0.000842916
0.000851786
0.000851363
0.000850986
0.000850604
0.000850269
0.000849926
0.000849629
0.000849311
0.00084904
0.000848725
0.000848457
0.000848118
0.000847834
0.000847453
0.000847142
0.000846707
0.000846367
0.000845878
0.000851783
0.000851364
0.000850978
0.000850602
0.000850256
0.000849916
0.000849607
0.000849299
0.000849021
0.000848738
0.000848485
0.00084822
0.000847984
0.000847729
0.000847502
0.00084725
0.000847026
0.000846775
0.000851781
0.000851364
0.000850973
0.000850598
0.000850247
0.000849909
0.000849592
0.000849286
0.000849
0.000848723
0.000848463
0.00084821
0.000847974
0.000847743
0.000847526
0.000847315
0.000847115
0.000846919
0.00085178
0.000851363
0.000850969
0.000850594
0.000850239
0.000849901
0.000849581
0.000849275
0.000848985
0.000848708
0.000848444
0.000848192
0.000847952
0.000847723
0.000847505
0.000847296
0.000847097
0.000846906
0.000851779
0.000851363
0.000850967
0.000850591
0.000850234
0.000849895
0.000849573
0.000849266
0.000848974
0.000848696
0.00084843
0.000848177
0.000847936
0.000847705
0.000847485
0.000847275
0.000847074
0.000846882
0.000851779
0.000851362
0.000850965
0.000850589
0.000850231
0.000849891
0.000849568
0.00084926
0.000848967
0.000848687
0.000848421
0.000848167
0.000847924
0.000847692
0.000847471
0.000847259
0.000847057
0.000846863
0.000851779
0.000851362
0.000850965
0.000850588
0.00085023
0.00084989
0.000849566
0.000849257
0.000848964
0.000848684
0.000848416
0.000848162
0.000847918
0.000847685
0.000847463
0.000847251
0.000847048
0.000846853
0.000851779
0.000851362
0.000850966
0.000850589
0.000850232
0.000849892
0.000849568
0.00084926
0.000848967
0.000848687
0.00084842
0.000848165
0.000847922
0.000847689
0.000847467
0.000847254
0.00084705
0.000846855
0.000851779
0.000851363
0.000850967
0.000850592
0.000850235
0.000849897
0.000849574
0.000849268
0.000848974
0.000848696
0.000848427
0.000848172
0.000847924
0.000847689
0.000847458
0.00084724
0.000847022
0.000846818
0.000851778
0.000851366
0.000850968
0.000850599
0.00085024
0.000849908
0.000849581
0.000849275
0.000848966
0.000848674
0.000848368
0.000848076
0.000847762
0.000847463
0.000847131
0.000846822
0.000846469
0.000846151
0.000851777
0.000851374
0.000850972
0.000850615
0.000850241
0.00084989
0.000849479
0.000849056
0.000848532
0.000847982
0.000847306
0.000846611
0.000845776
0.000844951
0.000843969
0.000843048
0.000841941
0.000840968
0.000851803
0.000851411
0.000850971
0.00085055
0.000849861
0.000848967
0.000847612
0.000845979
0.00084391
0.000841644
0.000838967
0.00083623
0.000833138
0.000830141
0.000826798
0.000823724
0.000820238
0.000817243
0.000852152
0.000851406
0.000850235
0.000848251
0.000844472
0.000839359
0.000832767
0.000825673
0.000817978
0.000810031
0.000801647
0.000793664
0.000785379
0.000777765
0.000769817
0.000762789
0.00075523
0.000748922
0.000854238
0.000847731
0.000840116
0.00082712
0.000808711
0.000789648
0.000769991
0.000751429
0.000733337
0.000716931
0.000700986
0.000686841
0.00067291
0.000660764
0.000648494
0.000638076
0.000627115
0.000618207
0.000855504
0.000818273
0.000776196
0.00072663
0.000684945
0.000649871
0.000618493
0.000592048
0.00056843
0.000548358
0.000529759
0.000514063
0.000498851
0.000486124
0.000473338
0.000462859
0.000451808
0.000443012
0.000808907
0.000666693
0.000570509
0.000509918
0.000465647
0.000431213
0.000404177
0.000382525
0.000364242
0.00034911
0.000336
0.000325122
0.000314595
0.000306318
0.000298069
0.000291485
0.000284429
0.000279091
0.000502078
0.00034844
0.000292687
0.000259196
0.000236339
0.000221189
0.000211593
0.000203959
0.000198521
0.000195074
0.000192231
0.00019038
0.000188599
0.000187457
0.000186187
0.000185494
0.00018458
0.000184171
7.27353e-05
7.0224e-05
6.79538e-05
6.56131e-05
6.3383e-05
6.1276e-05
5.94938e-05
5.79562e-05
5.67102e-05
5.57018e-05
5.4976e-05
5.44151e-05
5.41058e-05
5.38759e-05
5.38871e-05
5.39267e-05
5.40774e-05
5.43078e-05
3.60372e-06
4.83923e-05
7.27082e-05
9.41167e-05
0.000113491
0.000131333
0.000147967
0.000162911
0.000174781
0.000180212
0.000172986
3.332e-05
3.1165e-05
3.13851e-05
3.32552e-05
3.66319e-05
4.16777e-05
4.14991e-05
4.30761e-05
4.95658e-05
0.000281184
4.878e-05
5.11378e-05
5.28863e-05
5.49441e-05
5.70489e-05
5.9184e-05
6.13155e-05
6.34414e-05
6.5537e-05
6.76048e-05
6.96268e-05
7.16084e-05
7.35354e-05
7.54149e-05
7.72358e-05
7.90076e-05
8.07213e-05
8.2387e-05
8.3997e-05
8.55621e-05
8.70766e-05
8.85506e-05
8.99782e-05
9.13692e-05
9.27179e-05
9.40337e-05
9.53112e-05
9.6559e-05
9.77718e-05
9.89577e-05
0.000100111
0.00010124
0.000102339
0.000103415
0.000104462
0.000105487
0.000106485
0.000107462
0.000108413
0.000109343
0.00011025
0.000111136
0.000111998
0.000112837
0.00011365
0.000114441
0.000115206
0.000115948
0.000116667
0.000117362
0.000118035
0.000118685
0.000119315
0.000119922
0.000120512
0.00012108
0.000121633
0.000122166
0.000122685
0.000123181
0.000123659
0.000124102
0.000124502
0.00012482
0.000125016
0.000124432
0.00012826
0.000127732
0.000127763
0.000128439
0.000129016
0.00012903
0.000129486
0.000129665
0.000129611
0.000129432
0.000128002
0.000130226
0.00013351
0.000129936
0.000134094
0.000130993
0.000135225
0.000134991
0.000135427
0.000135874
0.000136037
0.000136298
0.000133752
0.000135128
0.000137434
0.000134557
0.000135185
0.000135576
0.000136447
0.000137663
0.000136806
0.000135829
0.000136987
0.000136477
0.000136455
0.000136107
0.000135763
0.000135325
0.000134822
0.000134244
0.000133589
0.000132845
0.000132015
0.000131088
0.000130062
0.000129012
0.000127881
0.000126601
0.000125244
0.000123799
0.000122279
0.000120705
0.000119012
0.000117237
0.00011566
0.000113362
0.000110722
0.000109277
0.00010803
0.000106792
0.000105531
0.000104267
0.000102986
0.000101707
0.000100483
9.919e-05
9.78558e-05
9.66438e-05
9.53864e-05
9.41469e-05
9.29091e-05
9.16811e-05
9.04708e-05
8.92947e-05
8.81485e-05
8.70278e-05
8.5933e-05
8.4869e-05
8.38351e-05
8.28304e-05
8.18555e-05
8.09106e-05
7.99946e-05
7.91071e-05
7.82448e-05
7.74106e-05
7.6587e-05
7.58063e-05
7.49659e-05
7.42753e-05
7.32218e-05
7.24686e-05
7.0354e-05
8.26699e-06
7.2711e-05
0.000147931
0.000207062
0.000251138
0.000283388
0.000305324
0.000317292
0.000317308
0.000300545
0.000261531
0.000201823
0.000187022
0.000185655
0.000190592
0.000198906
0.000208349
0.000219135
0.000240393
0.000277794
0.000332447
0.000315619
0.000320088
0.000328957
0.000339873
0.000352185
0.000365557
0.000379781
0.00039489
0.000410716
0.000427123
0.000443991
0.000461192
0.000478612
0.000496129
0.00051364
0.000531052
0.000548288
0.000565274
0.000581951
0.000598255
0.000614223
0.000629836
0.000645087
0.000659966
0.000674477
0.00068862
0.000702403
0.000715832
0.000728917
0.000741667
0.000754089
0.000766194
0.000777987
0.000789476
0.000800663
0.000811554
0.000822151
0.000832458
0.000842477
0.000852215
0.000861674
0.000870868
0.000879809
0.000888443
0.000896741
0.000904703
0.000912313
0.000919575
0.000926472
0.000933013
0.000939183
0.000944998
0.000950447
0.000955552
0.000960308
0.000964743
0.00096886
0.000972704
0.000976296
0.000979696
0.000982944
0.000986136
0.000989353
0.000992737
0.000996391
0.0010004
0.00100499
0.00100371
0.00100571
0.00100818
0.00101022
0.00101209
0.00101596
0.00101942
0.00102465
0.00103112
0.00103864
0.00104819
0.00105392
0.0010567
0.00106707
0.00107181
0.00108333
0.00108978
0.00109588
0.00110216
0.00110798
0.00111423
0.00111895
0.00113329
0.00113997
0.00113801
0.00115091
0.00115532
0.0011634
0.0011701
0.00117432
0.00118061
0.0011859
0.00119204
0.00120041
0.00120541
0.00120988
0.00121347
0.00121614
0.00121787
0.00121856
0.00121808
0.00121638
0.00121343
0.00120918
0.00120376
0.0011974
0.00118987
0.00118131
0.00117175
0.00116126
0.00115001
0.00113797
0.00112495
0.00111211
0.00109791
0.00107889
0.00105831
0.00103704
0.00101552
0.00099394
0.00097248
0.00095126
0.000930216
0.000909636
0.000889404
0.000869341
0.000850131
0.000831711
0.000813847
0.000796257
0.000779136
0.000762552
0.000746536
0.000730963
0.000715816
0.00070114
0.000686949
0.000673205
0.000659897
0.000647039
0.000634605
0.000622588
0.000610945
0.000599704
0.000588716
0.000578171
0.000567601
0.000557437
0.000547264
0.000534851
0.000515343
0.000464175
1.50254e-05
0.000105074
0.00020678
0.000290156
0.00035518
0.000404346
0.000439997
0.000463439
0.000475256
0.000475562
0.000465545
0.000450441
0.00044517
0.000448334
0.000457399
0.000470677
0.000487376
0.00050799
0.000534314
0.000564658
0.000592313
0.000610599
0.000630718
0.000653619
0.000678711
0.000705606
0.000734426
0.000765656
0.000798081
0.000831391
0.000865358
0.000899797
0.000934528
0.000969373
0.00100415
0.00103867
0.00107282
0.00110653
0.00113972
0.00117232
0.00120429
0.00123562
0.00126629
0.00129629
0.00132562
0.0013543
0.00138232
0.0014097
0.00143645
0.00146259
0.00148814
0.00151311
0.00153751
0.00156137
0.00158468
0.00160745
0.0016297
0.00165143
0.00167264
0.00169334
0.00171352
0.00173318
0.00175232
0.00177094
0.00178901
0.00180652
0.00182346
0.00183981
0.00185557
0.00187072
0.00188527
0.0018992
0.00191253
0.00192524
0.00193736
0.00194889
0.00195986
0.00197028
0.00198021
0.00198967
0.00199873
0.00200744
0.00201585
0.00202401
0.00203191
0.00203945
0.00204641
0.00205232
0.00205632
0.00206191
0.00206753
0.00207325
0.00207951
0.00208686
0.00209465
0.00210366
0.00211331
0.00212329
0.00213309
0.00214109
0.00214953
0.00216089
0.00217057
0.00218269
0.0021924
0.00220222
0.00221205
0.0022222
0.00223269
0.00224401
0.00225831
0.00226769
0.00227578
0.00229027
0.00230149
0.002314
0.00232513
0.00233454
0.00234504
0.00235304
0.00236138
0.00237009
0.00237656
0.00238149
0.00238467
0.00238594
0.00238519
0.00238231
0.00237718
0.00236974
0.00235996
0.00234782
0.00233344
0.00231701
0.00229846
0.00227796
0.00225563
0.00223164
0.00220619
0.00217939
0.00215124
0.0021224
0.00209225
0.0020586
0.00202282
0.0019859
0.00194847
0.00191089
0.00187343
0.00183629
0.0017995
0.00176344
0.00172829
0.00169382
0.0016607
0.00162939
0.00159904
0.00156873
0.00153936
0.001511
0.00148372
0.00145709
0.00143109
0.0014059
0.00138155
0.00135789
0.00133494
0.00131273
0.00129119
0.00127031
0.00125002
0.00123032
0.00121103
0.00119232
0.00117361
0.00115535
0.00113653
0.00111681
0.00109227
0.00101926
2.26994e-05
0.000136537
0.000260353
0.000363148
0.000444733
0.000507719
0.00055522
0.00058998
0.000614374
0.00063057
0.000640919
0.000648522
0.000657188
0.000668507
0.0006829
0.000700426
0.000721145
0.000745232
0.000772763
0.000802987
0.000834435
0.00086646
0.000900628
0.000937354
0.000976544
0.00101806
0.00106143
0.00110585
0.00115134
0.0011977
0.00124463
0.00129202
0.00133973
0.00138761
0.00143555
0.00148318
0.00153034
0.00157688
0.00162273
0.00166782
0.00171211
0.00175558
0.0017982
0.00183996
0.00188088
0.00192094
0.00196016
0.00199856
0.00203616
0.00207296
0.00210899
0.00214427
0.00217881
0.00221263
0.00224574
0.00227815
0.00230987
0.00234092
0.00237128
0.00240097
0.00242998
0.00245831
0.00248595
0.00251289
0.00253913
0.00256464
0.00258941
0.00261344
0.00263671
0.00265921
0.00268094
0.00270188
0.00272204
0.00274142
0.00276002
0.00277786
0.00279496
0.00281134
0.00282702
0.00284206
0.00285648
0.00287033
0.00288362
0.00289635
0.00290847
0.00291989
0.00293045
0.00294009
0.00294895
0.00295804
0.00296707
0.0029762
0.00298567
0.00299563
0.00300597
0.00301678
0.00302775
0.00303862
0.00304912
0.00305912
0.00306957
0.00308094
0.00309204
0.00310369
0.00311455
0.00312543
0.00313641
0.0031477
0.0031594
0.00317179
0.00318468
0.00319571
0.00320677
0.00321967
0.00323222
0.00324601
0.00325892
0.00326943
0.00327787
0.00328563
0.00329344
0.00330026
0.00330532
0.00330842
0.00330933
0.00330783
0.00330377
0.00329699
0.00328735
0.00327479
0.00325926
0.00324076
0.00321938
0.00319525
0.00316843
0.0031391
0.00310743
0.00307364
0.00303795
0.00300057
0.00296167
0.00292157
0.00288004
0.00283618
0.00279048
0.00274365
0.00269624
0.00264864
0.00260115
0.002554
0.00250732
0.00246138
0.00241643
0.00237242
0.00232964
0.00228844
0.00224856
0.00221003
0.00217333
0.00213805
0.00210437
0.00207127
0.00203887
0.00200757
0.00197741
0.00194799
0.00191945
0.00189186
0.00186507
0.00183905
0.00181376
0.00178912
0.00176503
0.0017415
0.00171813
0.00169511
0.00167159
0.001647
0.00162431
0.0015498
3.07028e-05
0.000164281
0.000308876
0.00042947
0.000526321
0.000602171
0.000660756
0.000705621
0.000739904
0.000766425
0.000787785
0.000806437
0.000824579
0.000843789
0.00086507
0.000889027
0.00091602
0.000946254
0.000979772
0.00101636
0.00105568
0.00109754
0.00114208
0.00118923
0.0012388
0.0012905
0.00134397
0.00139883
0.00145482
0.00151174
0.00156938
0.00162743
0.00168562
0.00174373
0.00180154
0.00185884
0.00191556
0.0019716
0.00202689
0.00208135
0.00213494
0.00218762
0.00223937
0.00229018
0.00234004
0.00238895
0.00243693
0.00248398
0.00253012
0.00257537
0.00261975
0.00266327
0.00270594
0.0027478
0.00278885
0.0028291
0.00286856
0.00290724
0.00294515
0.00298228
0.00301864
0.00305421
0.003089
0.00312298
0.00315616
0.00318851
0.00322001
0.00325067
0.00328045
0.00330935
0.00333735
0.00336444
0.00339061
0.00341587
0.0034402
0.00346361
0.00348611
0.00350771
0.00352844
0.00354831
0.00356734
0.00358555
0.00360296
0.00361954
0.00363526
0.00365006
0.00366387
0.00367673
0.00368883
0.00370051
0.00371183
0.00372295
0.00373399
0.00374504
0.0037561
0.00376713
0.00377798
0.00378848
0.00379857
0.00380835
0.0038182
0.00382825
0.00383826
0.00384834
0.0038582
0.00386808
0.00387803
0.00388816
0.00389859
0.00390937
0.00392009
0.00393006
0.00394006
0.00395114
0.00396308
0.00397563
0.00398572
0.00399367
0.00400029
0.00400678
0.00401245
0.00401676
0.00401936
0.00401991
0.00401813
0.00401378
0.00400665
0.00399656
0.00398335
0.00396692
0.00394721
0.00392421
0.00389796
0.00386858
0.00383617
0.00380091
0.00376301
0.00372274
0.00368035
0.00363609
0.00359018
0.00354283
0.003494
0.00344344
0.0033914
0.00333837
0.00328478
0.00323101
0.00317736
0.00312405
0.00307128
0.00301927
0.00296823
0.00291823
0.00286945
0.0028221
0.00277615
0.00273163
0.00268878
0.00264754
0.00260877
0.00257148
0.00253569
0.00250137
0.00246847
0.0024361
0.00240472
0.00237448
0.00234504
0.00231641
0.00228857
0.00226139
0.00223493
0.00220899
0.00218334
0.00215802
0.00213247
0.00210593
0.00208268
0.00201627
3.85799e-05
0.000189556
0.000352761
0.00048992
0.000600853
0.000689002
0.000758287
0.000812739
0.000855888
0.000890853
0.000920389
0.000946902
0.000972421
0.000998533
0.00102639
0.00105678
0.00109018
0.00112684
0.00116685
0.00121015
0.00125659
0.00130601
0.00135826
0.00141313
0.00147036
0.00152964
0.00159066
0.00165307
0.00171661
0.001781
0.00184598
0.0019113
0.0019767
0.00204197
0.00210693
0.0021714
0.00223528
0.00229847
0.00236087
0.00242243
0.0024831
0.00254283
0.0026016
0.00265939
0.0027162
0.00277203
0.00282688
0.00288076
0.00293368
0.00298567
0.00303673
0.00308689
0.00313616
0.00318456
0.00323211
0.0032788
0.00332467
0.0033697
0.00341391
0.00345729
0.00349985
0.00354157
0.00358245
0.00362247
0.00366162
0.00369989
0.00373725
0.00377368
0.00380917
0.00384369
0.00387721
0.00390973
0.00394122
0.00397167
0.00400107
0.0040294
0.00405666
0.00408285
0.00410797
0.00413202
0.00415502
0.00417695
0.00419783
0.00421764
0.00423634
0.00425392
0.00427034
0.00428565
0.00429997
0.00431346
0.00432622
0.00433837
0.00435001
0.0043612
0.00437197
0.00438229
0.00439211
0.00440137
0.00441004
0.00441823
0.0044261
0.00443376
0.00444119
0.00444843
0.00445544
0.00446235
0.00446922
0.00447605
0.00448302
0.00449029
0.00449737
0.00450371
0.00451078
0.0045193
0.00452746
0.00453436
0.00453983
0.00454456
0.00454861
0.00455203
0.00455454
0.00455576
0.00455536
0.00455303
0.00454847
0.00454144
0.00453169
0.00451901
0.00450321
0.00448417
0.00446178
0.00443602
0.00440689
0.00437448
0.00433889
0.0043003
0.00425895
0.00421511
0.00416905
0.00412103
0.00407128
0.00402
0.00396729
0.00391317
0.00385785
0.00380167
0.00374499
0.00368813
0.00363136
0.00357491
0.00351899
0.0034638
0.00340952
0.00335627
0.00330419
0.00325344
0.00320404
0.00315606
0.00310963
0.00306479
0.00302189
0.00298073
0.00294195
0.00290515
0.00287022
0.00283671
0.00280459
0.00277379
0.00274359
0.00271416
0.00268554
0.0026575
0.00263016
0.00260331
0.00257683
0.00255069
0.00252458
0.00249783
0.00247382
0.00241697
4.60674e-05
0.00021195
0.000391506
0.000543767
0.000667797
0.00076772
0.000847446
0.000911316
0.000963095
0.00100607
0.0010431
0.00107663
0.00110872
0.00114102
0.00117476
0.00121082
0.00124976
0.00129191
0.00133739
0.00138618
0.00143817
0.00149319
0.00155102
0.00161142
0.0016741
0.00173876
0.00180509
0.00187277
0.00194153
0.00201109
0.00208118
0.00215158
0.00222205
0.0022924
0.00236246
0.00243207
0.00250112
0.0025695
0.00263714
0.00270395
0.0027699
0.00283493
0.00289903
0.00296217
0.00302434
0.00308553
0.00314576
0.00320503
0.00326335
0.00332073
0.00337718
0.00343274
0.0034874
0.00354119
0.00359413
0.00364621
0.00369745
0.00374787
0.00379745
0.00384619
0.00389411
0.00394117
0.00398738
0.00403271
0.00407716
0.00412068
0.00416327
0.00420488
0.0042455
0.0042851
0.00432363
0.00436107
0.00439739
0.00443256
0.00446655
0.00449934
0.0045309
0.00456121
0.00459027
0.00461804
0.00464453
0.00466971
0.00469357
0.0047161
0.00473727
0.00475707
0.00477547
0.00479252
0.00480827
0.00482281
0.00483624
0.00484864
0.00486007
0.00487061
0.00488029
0.00488911
0.00489707
0.00490416
0.00491041
0.00491587
0.00492066
0.00492487
0.00492862
0.00493192
0.00493468
0.0049372
0.00493955
0.00494146
0.00494329
0.00494583
0.00494877
0.00495046
0.00495214
0.00495437
0.00495647
0.00495789
0.00495875
0.00495911
0.00495901
0.00495838
0.004957
0.00495459
0.00495085
0.00494549
0.00493823
0.00492878
0.00491689
0.00490232
0.00488483
0.00486427
0.0048405
0.00481343
0.00478303
0.00474935
0.00471248
0.00467258
0.00462989
0.00458469
0.00453725
0.00448782
0.00443662
0.00438387
0.00432974
0.00427435
0.00421791
0.00416071
0.00410304
0.00404518
0.00398738
0.00392986
0.00387282
0.00381646
0.00376093
0.00370639
0.00365294
0.00360071
0.00354977
0.00350019
0.00345205
0.00340543
0.00336049
0.00331722
0.0032759
0.00323694
0.00320041
0.00316601
0.00313344
0.00310247
0.00307263
0.00304379
0.00301577
0.00298809
0.00296105
0.00293444
0.00290825
0.00288244
0.00285681
0.00283091
0.00280684
0.00275883
5.2946e-05
0.000231198
0.000424743
0.000590482
0.000726542
0.000837571
0.000927355
0.00100042
0.00106067
0.00111149
0.00115577
0.00119602
0.00123429
0.00127228
0.00131129
0.00135226
0.00139584
0.0014424
0.00149212
0.00154503
0.00160103
0.00165996
0.00172161
0.00178572
0.001852
0.00192018
0.00198994
0.00206101
0.00213311
0.00220597
0.00227936
0.00235305
0.00242684
0.00250054
0.00257399
0.00264706
0.00271963
0.0027916
0.00286288
0.00293341
0.00300314
0.00307201
0.00314001
0.00320711
0.00327329
0.00333856
0.00340291
0.00346634
0.00352887
0.0035905
0.00365126
0.00371115
0.0037702
0.00382842
0.00388581
0.0039424
0.00399818
0.00405317
0.00410736
0.00416075
0.00421334
0.0042651
0.00431604
0.00436611
0.00441531
0.00446359
0.00451093
0.00455729
0.00460263
0.00464691
0.00469008
0.0047321
0.00477292
0.0048125
0.00485079
0.00488774
0.00492332
0.00495749
0.0049902
0.00502142
0.00505112
0.00507928
0.00510585
0.00513082
0.00515415
0.00517582
0.00519582
0.00521416
0.00523087
0.005246
0.00525961
0.00527176
0.00528252
0.00529193
0.00530004
0.00530688
0.00531246
0.00531682
0.00531998
0.00532201
0.00532299
0.00532298
0.00532227
0.00532092
0.00531832
0.00531547
0.00531259
0.00530896
0.00530508
0.00530134
0.00529731
0.00529285
0.00528835
0.00528395
0.00527949
0.00527481
0.00526994
0.00526493
0.00525977
0.00525438
0.00524858
0.00524217
0.00523487
0.00522643
0.00521654
0.00520493
0.0051913
0.0051754
0.00515697
0.00513578
0.00511164
0.00508441
0.00505403
0.00502048
0.00498381
0.00494417
0.00490179
0.00485694
0.00480989
0.00476084
0.00471003
0.00465766
0.00460392
0.00454899
0.00449309
0.00443646
0.00437938
0.00432208
0.00426479
0.00420772
0.00415105
0.00409498
0.00403968
0.00398528
0.00393188
0.00387959
0.0038285
0.00377868
0.0037302
0.00368314
0.0036376
0.00359362
0.00355136
0.00351106
0.0034733
0.00343833
0.00340562
0.00337479
0.00334542
0.00331726
0.00329011
0.00326365
0.00323788
0.00321233
0.0031872
0.00316244
0.00313796
0.0031135
0.00309003
0.00304937
5.90419e-05
0.000247176
0.000452328
0.000629797
0.000776697
0.000897987
0.000997269
0.00107915
0.00114759
0.00120601
0.00125732
0.00130401
0.00134816
0.00139145
0.00143522
0.00148048
0.0015279
0.00157795
0.00163084
0.00168666
0.00174535
0.00180678
0.00187075
0.00193703
0.00200536
0.00207546
0.00214707
0.00221991
0.00229375
0.00236833
0.00244345
0.00251888
0.00259446
0.00267
0.00274537
0.00282044
0.00289508
0.00296922
0.00304276
0.00311564
0.0031878
0.00325921
0.00332983
0.00339963
0.00346862
0.00353676
0.00360408
0.00367056
0.00373622
0.00380108
0.00386513
0.0039284
0.00399091
0.00405266
0.00411368
0.00417397
0.00423354
0.00429239
0.00435052
0.00440792
0.00446459
0.00452051
0.00457566
0.00463001
0.00468352
0.00473617
0.00478791
0.00483869
0.00488846
0.00493716
0.00498474
0.00503114
0.00507628
0.00512011
0.00516257
0.00520357
0.00524307
0.005281
0.0053173
0.00535191
0.00538478
0.00541585
0.00544508
0.00547243
0.00549785
0.00552131
0.00554279
0.00556228
0.00557978
0.00559533
0.00560895
0.00562069
0.0056306
0.00563871
0.00564507
0.00564973
0.00565273
0.0056541
0.00565388
0.00565214
0.00564896
0.00564413
0.00563834
0.00563184
0.00562418
0.00561563
0.00560628
0.00559624
0.00558569
0.00557483
0.00556361
0.00555209
0.00554047
0.00552886
0.0055173
0.00550583
0.0054945
0.00548338
0.00547248
0.00546176
0.00545111
0.00544036
0.00542929
0.00541767
0.0054052
0.00539158
0.00537652
0.00535973
0.0053409
0.00531978
0.0052961
0.00526966
0.00524033
0.00520805
0.0051728
0.00513467
0.0050939
0.00505075
0.00500548
0.00495825
0.00490925
0.00485868
0.00480674
0.00475362
0.00469954
0.00464472
0.00458943
0.0045339
0.00447831
0.00442284
0.00436768
0.00431303
0.00425905
0.00420589
0.00415361
0.00410233
0.00405213
0.0040031
0.00395531
0.00390883
0.00386372
0.00382007
0.00377797
0.0037376
0.00369935
0.00366428
0.0036318
0.00360139
0.00357264
0.00354527
0.00351905
0.00349374
0.00346923
0.00344529
0.00342179
0.00339859
0.00337566
0.00335293
0.00333061
0.00329593
6.42341e-05
0.000259888
0.000474297
0.000661661
0.000818083
0.000948618
0.00105666
0.0011468
0.00122298
0.00128862
0.00134661
0.00139941
0.00144907
0.00149727
0.00154535
0.00159432
0.00164494
0.00169769
0.00175286
0.00181058
0.00187085
0.00193358
0.00199861
0.00206574
0.00213475
0.00220539
0.00227743
0.00235063
0.00242477
0.00249965
0.00257506
0.00265083
0.0027268
0.00280281
0.00287874
0.00295445
0.00302984
0.00310482
0.00317932
0.00325326
0.0033266
0.00339929
0.0034713
0.00354261
0.00361321
0.00368309
0.00375226
0.00382071
0.00388845
0.0039555
0.00402187
0.00408757
0.00415264
0.00421707
0.00428089
0.00434411
0.00440674
0.00446877
0.0045302
0.00459103
0.00465125
0.00471083
0.00476974
0.00482796
0.00488545
0.00494215
0.00499802
0.00505299
0.00510701
0.00516
0.00521188
0.00526258
0.00531202
0.0053601
0.00540675
0.00545186
0.00549536
0.00553716
0.00557717
0.00561531
0.0056515
0.00568566
0.00571773
0.00574764
0.00577534
0.00580076
0.00582387
0.00584465
0.00586308
0.00587916
0.00589291
0.00590435
0.00591351
0.00592044
0.00592516
0.00592774
0.00592821
0.00592664
0.00592309
0.00591737
0.00590979
0.00590056
0.00589002
0.00587815
0.00586467
0.00584991
0.00583403
0.00581718
0.00579954
0.00578129
0.00576253
0.00574343
0.00572415
0.00570489
0.00568579
0.00566699
0.00564862
0.0056308
0.00561361
0.00559707
0.00558114
0.00556571
0.00555062
0.00553567
0.00552056
0.00550499
0.00548865
0.00547123
0.00545243
0.00543193
0.00540936
0.00538446
0.00535704
0.00532696
0.00529412
0.00525849
0.00522037
0.00518001
0.00513767
0.0050934
0.00504737
0.00499974
0.00495071
0.00490048
0.00484925
0.00479722
0.00474472
0.00469192
0.00463897
0.00458602
0.00453327
0.00448091
0.00442915
0.00437809
0.00432779
0.00427834
0.00422985
0.00418242
0.00413611
0.00409098
0.00404711
0.00400457
0.00396346
0.00392394
0.0038863
0.00385171
0.00381986
0.00379016
0.00376221
0.00373574
0.00371051
0.00368632
0.00366306
0.00364056
0.0036187
0.00359737
0.00357625
0.00355535
0.00353451
0.00350477
6.84521e-05
0.000269428
0.000490808
0.000686146
0.000850637
0.000989151
0.00110519
0.00120286
0.00128616
0.00135846
0.00142263
0.00148106
0.00153577
0.0015884
0.00164028
0.00169243
0.00174562
0.00180038
0.00185705
0.0019158
0.00197669
0.00203968
0.00210465
0.00217146
0.00223991
0.00230981
0.00238097
0.00245318
0.00252627
0.00260005
0.00267439
0.00274914
0.00282418
0.00289936
0.00297454
0.00304961
0.00312445
0.003199
0.00327317
0.00334691
0.00342016
0.00349288
0.00356505
0.00363665
0.00370768
0.00377812
0.00384799
0.0039173
0.00398604
0.00405425
0.00412192
0.0041891
0.00425579
0.00432202
0.00438782
0.00445319
0.00451814
0.00458268
0.0046468
0.00471049
0.00477374
0.00483652
0.0048988
0.00496054
0.0050217
0.00508222
0.00514204
0.00520108
0.00525927
0.00531651
0.00537273
0.0054278
0.00548164
0.00553413
0.00558517
0.00563463
0.0056824
0.00572836
0.00577241
0.00581443
0.00585432
0.00589197
0.00592728
0.00596017
0.00599055
0.00601836
0.00604352
0.006066
0.00608575
0.00610276
0.00611702
0.00612854
0.00613734
0.00614344
0.00614689
0.00614772
0.00614601
0.00614182
0.00613502
0.00612581
0.00611438
0.00610102
0.00608566
0.00606834
0.00604916
0.00602829
0.00600592
0.00598223
0.00595743
0.00593172
0.00590531
0.0058784
0.00585123
0.00582404
0.00579707
0.00577055
0.0057447
0.00571972
0.00569578
0.00567297
0.00565135
0.00563087
0.00561143
0.00559296
0.00557507
0.00555748
0.00553987
0.00552193
0.0055032
0.0054833
0.00546207
0.0054391
0.00541421
0.00538715
0.00535766
0.00532551
0.00529125
0.00525498
0.00521656
0.00517621
0.00513408
0.00509032
0.00504511
0.00499865
0.00495111
0.00490265
0.00485377
0.00480453
0.00475501
0.00470535
0.00465574
0.0046064
0.00455759
0.00450935
0.00446172
0.00441479
0.00436867
0.00432349
0.00427931
0.00423619
0.00419418
0.00415339
0.00411393
0.00407594
0.00403976
0.00400642
0.00397564
0.00394695
0.00391999
0.00389453
0.00387035
0.0038473
0.00382526
0.0038041
0.00378375
0.00376409
0.00374487
0.00372581
0.00370658
0.00368096
7.1674e-05
0.000275988
0.000502203
0.000703667
0.00087486
0.00102003
0.00114278
0.00124699
0.00133653
0.00141472
0.00148435
0.00154774
0.00160686
0.00166331
0.00171838
0.00177308
0.00182818
0.00188425
0.00194165
0.0020006
0.0020612
0.00212346
0.00218733
0.00225269
0.00231941
0.00238733
0.0024563
0.00252618
0.00259682
0.0026681
0.00273985
0.00281219
0.00288499
0.00295817
0.00303137
0.0031045
0.00317751
0.00325032
0.00332287
0.00339509
0.00346695
0.00353842
0.00360946
0.00368009
0.00375029
0.00382008
0.00388947
0.00395846
0.00402709
0.00409536
0.0041633
0.00423093
0.00429827
0.00436539
0.00443232
0.00449905
0.00456561
0.00463199
0.00469818
0.00476418
0.00482997
0.00489554
0.00496083
0.00502582
0.00509043
0.00515462
0.00521829
0.00528138
0.00534377
0.00540538
0.00546607
0.00552574
0.00558426
0.00564148
0.00569727
0.00575149
0.00580399
0.00585463
0.00590325
0.00594972
0.0059939
0.00603564
0.00607484