/*--------------------------------*- C++ -*----------------------------------*\
  =========                 |
  \\      /  F ield         | OpenFOAM: The Open Source CFD Toolbox
   \\    /   O peration     | Website:  https://openfoam.org
    \\  /    A nd           | Version:  12
     \\/     M anipulation  |
\*---------------------------------------------------------------------------*/
FoamFile
{
    format      ascii;
    class       volScalarField;
    location    "100";
    object      p;
}
// * * * * * * * * * * * * * * * * * * * * * * * * * * * * * * * * * * * * * //

dimensions      [0 2 -2 0 0 0 0];

internalField   nonuniform List<scalar> 
12225
(
-2.05827
-4.24664
-5.34586
-5.66544
-5.84533
-6.01258
-6.14196
-6.23434
-6.30736
-6.3701
-6.42421
-6.47138
-6.51067
-6.54197
-6.56356
-6.56402
-6.55981
-6.41405
-5.22177
-5.9899
-6.14966
-6.0563
-6.04241
-6.10854
-6.18387
-6.24685
-6.30292
-6.3558
-6.40462
-6.44801
-6.48567
-6.5168
-6.54
-6.54659
-6.55909
-6.51219
-5.62295
-5.60766
-5.73426
-5.81152
-5.90511
-6.02359
-6.12856
-6.2107
-6.27907
-6.34001
-6.39454
-6.44228
-6.48399
-6.51863
-6.54783
-6.56443
-6.58897
-6.60264
-5.50103
-5.44384
-5.68465
-5.84194
-5.9424
-6.04689
-6.14239
-6.21981
-6.28523
-6.34413
-6.39742
-6.44476
-6.48686
-6.52302
-6.55549
-6.58192
-6.61674
-6.66251
-5.49074
-5.51491
-5.74222
-5.88277
-5.9651
-6.05548
-6.1446
-6.21978
-6.28416
-6.34243
-6.39566
-6.4436
-6.48697
-6.52594
-6.56248
-6.59735
-6.64091
-6.69825
-5.5488
-5.59748
-5.77103
-5.89393
-5.97418
-6.0604
-6.14645
-6.22055
-6.28453
-6.34258
-6.39596
-6.44465
-6.48939
-6.53086
-6.57103
-6.61173
-6.66087
-6.72356
-5.60926
-5.65324
-5.78771
-5.90307
-5.98564
-6.06825
-6.15027
-6.22265
-6.28598
-6.3437
-6.39714
-6.4465
-6.49252
-6.53614
-6.57938
-6.62453
-6.6771
-6.74096
-5.66295
-5.70034
-5.80962
-5.917
-5.9989
-6.07705
-6.1547
-6.22512
-6.28772
-6.34507
-6.39854
-6.44851
-6.4957
-6.54121
-6.5869
-6.63495
-6.68881
-6.75078
-5.71289
-5.74577
-5.83605
-5.93316
-6.01222
-6.08626
-6.15981
-6.22811
-6.2898
-6.34669
-6.40011
-6.45056
-6.49872
-6.54569
-6.59304
-6.64251
-6.6963
-6.75552
-5.76019
-5.7892
-5.86412
-5.95055
-6.02583
-6.09619
-6.16589
-6.23181
-6.29236
-6.34865
-6.40188
-6.4526
-6.50143
-6.54934
-6.5976
-6.6475
-6.70039
-6.75654
-5.80479
-5.83007
-5.89272
-5.96921
-6.04006
-6.10686
-6.17288
-6.23628
-6.29546
-6.351
-6.40388
-6.45464
-6.50379
-6.55214
-6.60067
-6.65025
-6.70164
-6.7546
-5.84313
-5.86526
-5.91897
-5.98721
-6.05361
-6.11711
-6.17996
-6.24097
-6.29874
-6.35343
-6.40581
-6.45636
-6.5055
-6.55383
-6.60211
-6.6509
-6.7006
-6.75076
-5.87861
-5.89811
-5.94452
-6.00541
-6.06731
-6.12757
-6.18739
-6.24606
-6.30232
-6.35605
-6.40777
-6.45791
-6.50677
-6.5548
-6.60248
-6.65019
-6.69807
-6.74568
-5.91589
-5.93288
-5.97257
-6.0262
-6.08308
-6.13971
-6.19628
-6.25231
-6.30677
-6.35926
-6.41005
-6.45946
-6.50772
-6.55508
-6.60178
-6.648
-6.69377
-6.73867
-5.95375
-5.96838
-6.00214
-6.04896
-6.10058
-6.15327
-6.20644
-6.25961
-6.31195
-6.36291
-6.41246
-6.46075
-6.50798
-6.55422
-6.59956
-6.64395
-6.68738
-6.72953
-5.99025
-6.00279
-6.03159
-6.07243
-6.11891
-6.16758
-6.21733
-6.26755
-6.31751
-6.36665
-6.41463
-6.46147
-6.50718
-6.5519
-6.5955
-6.63788
-6.67886
-6.71834
-6.02254
-6.03338
-6.05833
-6.09432
-6.1363
-6.18122
-6.22778
-6.27516
-6.32267
-6.36975
-6.41597
-6.46107
-6.50498
-6.54777
-6.58938
-6.6296
-6.66823
-6.70514
-6.04626
-6.05593
-6.0783
-6.11097
-6.14967
-6.1917
-6.23573
-6.28077
-6.32607
-6.37116
-6.41559
-6.45889
-6.5009
-6.54164
-6.58118
-6.61927
-6.65571
-6.69036
-6.05446
-6.06371
-6.08516
-6.11662
-6.15408
-6.19488
-6.23768
-6.28144
-6.32539
-6.36908
-6.41207
-6.45385
-6.4942
-6.53313
-6.57079
-6.60695
-6.64146
-6.67418
-6.0395
-6.04941
-6.0723
-6.10573
-6.14517
-6.18743
-6.23116
-6.27548
-6.31977
-6.36339
-6.40605
-6.44721
-6.48688
-6.52491
-6.56154
-6.59647
-6.62973
-6.66121
-6.01344
-6.02438
-6.04997
-6.08736
-6.13058
-6.17569
-6.22151
-6.2676
-6.3131
-6.35747
-6.40028
-6.44151
-6.48098
-6.51883
-6.5549
-6.58927
-6.62171
-6.6526
-5.9788
-5.99077
-6.02047
-6.06443
-6.11316
-6.16172
-6.21024
-6.25878
-6.30624
-6.35177
-6.39523
-6.43672
-6.47632
-6.51407
-6.54992
-6.58388
-6.61593
-6.64635
-5.93868
-5.95073
-5.98553
-6.03917
-6.0952
-6.14775
-6.19929
-6.25046
-6.29984
-6.34665
-6.39098
-6.433
-6.47291
-6.51067
-6.54644
-6.58012
-6.61198
-6.64215
-5.89528
-5.90641
-5.94853
-6.01329
-6.07594
-6.13326
-6.18957
-6.24412
-6.29515
-6.34281
-6.38777
-6.43029
-6.47042
-6.50825
-6.54383
-6.57735
-6.60893
-6.63894
-5.8486
-5.8542
-5.91722
-5.9958
-6.05815
-6.11698
-6.17885
-6.23798
-6.29127
-6.34006
-6.38581
-6.42886
-6.46926
-6.50712
-6.54261
-6.57595
-6.60733
-6.63726
-5.80548
-5.76917
-5.87903
-5.99045
-6.05317
-6.10893
-6.17176
-6.23231
-6.28638
-6.33583
-6.38221
-6.42574
-6.46643
-6.50444
-6.53998
-6.57331
-6.60469
-6.63457
-5.81965
-5.66081
-5.79006
-5.94452
-6.03525
-6.10714
-6.17657
-6.23821
-6.29189
-6.34093
-6.38683
-6.42982
-6.46989
-6.50731
-6.54224
-6.575
-6.60592
-6.63551
-5.94233
-5.76255
-5.77719
-5.84958
-5.93854
-6.03838
-6.12958
-6.20405
-6.26661
-6.32249
-6.37343
-6.4199
-6.46251
-6.50178
-6.53799
-6.57161
-6.60329
-6.634
-5.64965
-6.24146
-6.33075
-6.20682
-6.15298
-6.18072
-6.22825
-6.27221
-6.31463
-6.35752
-6.3996
-6.43961
-6.47743
-6.51299
-6.54607
-6.57686
-6.60582
-6.6351
-2.66163
-4.42443
-5.42945
-5.72905
-5.87869
-6.02282
-6.13742
-6.21913
-6.28422
-6.34177
-6.39356
-6.44025
-6.4828
-6.52188
-6.55768
-6.59002
-6.61903
-6.64332
-7.94988
-7.94768
-7.94554
-7.94725
-7.95085
-7.95531
-7.96077
-7.96693
-7.97327
-7.97948
-7.98598
-7.99339
-8.00203
-8.01156
-8.02151
-8.03152
-8.04325
-8.05799
-8.07304
-8.08713
-8.10278
-8.11885
-8.13581
-8.15796
-8.18482
-8.21422
-8.24642
-8.28123
-8.31859
-8.35816
-8.39973
-8.44284
-8.48718
-8.53227
-8.57773
-8.6231
-8.66803
-8.71211
-8.75505
-8.79655
-8.83638
-8.87436
-8.91032
-8.94416
-8.97577
-9.00511
-9.03212
-9.05682
-9.07915
-9.09918
-9.11684
-9.13229
-9.14544
-9.15644
-9.16521
-9.17196
-9.17657
-9.17927
-9.17989
-9.17876
-9.1757
-9.17102
-9.16451
-9.15657
-9.14692
-9.13602
-9.12356
-9.11003
-9.09506
-9.0792
-9.06207
-9.04418
-9.0251
-9.00542
-8.98469
-8.96354
-8.94142
-8.91884
-8.89524
-8.87129
-8.84624
-8.82056
-8.7934
-8.76528
-8.73521
-8.70363
-8.66941
-8.6324
-8.59141
-8.54601
-8.49625
-8.44153
-8.38114
-8.31409
-8.2396
-8.15665
-8.06426
-7.96116
-7.84612
-7.7177
-7.57456
-7.41486
-7.2367
-7.03834
-6.81789
-6.57399
-6.30512
-6.01008
-5.68739
-5.33614
-4.95497
-4.54314
-4.09999
-3.62541
-3.11914
-2.58171
-2.01378
-1.41684
-0.792545
-0.143245
0.528471
1.21947
1.92642
2.64548
3.37248
4.10296
4.8324
5.5563
6.27026
6.97015
7.65208
8.31262
8.94864
9.55758
10.1372
10.686
11.2029
11.6871
12.1387
12.5581
12.9465
13.3051
13.6356
13.9395
14.2178
14.4711
14.7009
14.9083
15.095
15.2624
15.4123
15.5459
15.6648
15.7703
15.8637
15.9461
16.0186
16.0822
16.1378
16.1862
16.2281
16.2643
16.2953
16.3218
16.3441
16.3628
16.3785
16.3914
16.4021
16.4109
16.4185
16.4255
16.4326
16.4411
16.4527
16.4703
16.5008
16.5511
16.6486
16.7829
-7.94921
-7.94772
-7.94622
-7.94798
-7.95127
-7.95472
-7.95825
-7.96182
-7.96544
-7.96901
-7.97268
-7.97691
-7.98194
-7.98765
-7.99356
-7.99969
-8.00695
-8.01495
-8.02254
-8.03121
-8.04286
-8.05914
-8.08144
-8.10783
-8.13443
-8.16306
-8.19468
-8.2292
-8.2665
-8.30629
-8.34829
-8.39207
-8.43723
-8.48324
-8.52966
-8.576
-8.62183
-8.66675
-8.71043
-8.75259
-8.79297
-8.83141
-8.86774
-8.90188
-8.93373
-8.96325
-8.99039
-9.01519
-9.03758
-9.05762
-9.0753
-9.0907
-9.10378
-9.11466
-9.1233
-9.12983
-9.13422
-9.1366
-9.13693
-9.13539
-9.13191
-9.1267
-9.11968
-9.11109
-9.10085
-9.0892
-9.07607
-9.0617
-9.046
-9.02925
-9.01133
-8.99253
-8.9727
-8.95212
-8.93068
-8.90867
-8.88584
-8.86246
-8.83832
-8.8137
-8.78827
-8.7622
-8.7351
-8.7071
-8.67761
-8.64672
-8.61383
-8.57856
-8.53959
-8.49671
-8.44986
-8.39847
-8.34152
-8.27813
-8.2074
-8.12833
-8.03995
-7.94107
-7.8304
-7.70633
-7.56722
-7.41166
-7.23834
-7.04551
-6.83172
-6.59523
-6.33466
-6.04839
-5.73516
-5.39362
-5.02276
-4.62166
-4.18954
-3.72605
-3.2312
-2.70517
-2.14865
-1.56275
-0.949101
-0.309872
0.35245
1.03499
1.73453
2.44735
3.16939
3.89625
4.62346
5.34649
6.06096
6.76259
7.44747
8.11196
8.75287
9.36743
9.95335
10.5089
11.0328
11.5244
11.9835
12.4104
12.8061
13.1714
13.5076
13.8165
14.0996
14.3581
14.593
14.8058
14.9978
15.1706
15.3257
15.4644
15.5881
15.6983
15.7962
15.8828
15.9594
16.0268
16.086
16.1377
16.1828
16.222
16.2558
16.2848
16.3096
16.3306
16.3484
16.3633
16.3759
16.3865
16.3958
16.4044
16.413
16.423
16.436
16.4546
16.4841
16.5297
16.6157
16.7253
-7.94345
-7.94401
-7.94434
-7.94676
-7.9499
-7.9525
-7.95448
-7.95601
-7.95723
-7.95826
-7.95942
-7.96105
-7.96332
-7.96606
-7.9691
-7.97268
-7.97757
-7.98407
-7.99211
-8.00229
-8.01517
-8.03088
-8.05003
-8.07305
-8.09918
-8.12855
-8.16118
-8.19673
-8.23488
-8.27522
-8.31738
-8.36091
-8.4054
-8.45042
-8.49558
-8.54051
-8.58485
-8.62828
-8.67053
-8.71134
-8.75051
-8.78788
-8.82328
-8.85661
-8.88778
-8.91674
-8.94341
-8.9678
-8.98986
-9.00961
-9.02703
-9.04219
-9.05506
-9.0657
-9.07412
-9.08039
-9.08452
-9.08658
-9.0866
-9.08468
-9.08082
-9.07514
-9.06767
-9.05853
-9.04775
-9.03547
-9.02174
-9.00668
-8.99033
-8.97284
-8.95426
-8.93472
-8.91424
-8.89298
-8.87097
-8.84832
-8.82501
-8.80112
-8.77662
-8.75161
-8.72598
-8.69973
-8.67275
-8.64497
-8.61607
-8.58593
-8.55418
-8.52023
-8.4833
-8.44293
-8.39916
-8.3513
-8.29828
-8.23938
-8.17353
-8.09983
-8.01707
-7.92415
-7.81961
-7.70198
-7.56972
-7.4214
-7.25572
-7.07104
-6.86601
-6.63883
-6.38809
-6.11215
-5.8099
-5.47978
-5.12084
-4.73198
-4.31259
-3.86199
-3.38016
-2.86718
-2.32376
-1.75078
-1.14977
-0.522678
0.128119
0.799973
1.4898
2.19403
2.90872
3.62956
4.35219
5.07205
5.78481
6.48611
7.172
7.83872
8.48302
9.10197
9.6933
10.2552
10.7863
11.2859
11.7539
12.1905
12.5962
12.9721
13.3193
13.6391
13.9327
14.2013
14.446
14.6682
14.8691
15.0504
15.2135
15.3597
15.4906
15.6075
15.7116
15.8041
15.886
15.9585
16.0223
16.0785
16.1277
16.1706
16.2078
16.2401
16.2679
16.2917
16.3121
16.3294
16.3442
16.357
16.3682
16.3785
16.3889
16.4003
16.4145
16.4337
16.4623
16.503
16.5738
16.6459
-7.92917
-7.9331
-7.93686
-7.94109
-7.94501
-7.94786
-7.94962
-7.95051
-7.95072
-7.95047
-7.95012
-7.95002
-7.95044
-7.95145
-7.95317
-7.95585
-7.96002
-7.96618
-7.97467
-7.98594
-8.00034
-8.01791
-8.03864
-8.06251
-8.08943
-8.1193
-8.15203
-8.18733
-8.22495
-8.26453
-8.30573
-8.34815
-8.39145
-8.43521
-8.47908
-8.52269
-8.56571
-8.60785
-8.64883
-8.68842
-8.72643
-8.76268
-8.79704
-8.82939
-8.85965
-8.88774
-8.91361
-8.93725
-8.9586
-8.97768
-8.99447
-9.00901
-9.02128
-9.03134
-9.03918
-9.04488
-9.04843
-9.04992
-9.04935
-9.04683
-9.04237
-9.03608
-9.02798
-9.01821
-9.0068
-8.99388
-8.9795
-8.9638
-8.94684
-8.92875
-8.90961
-8.88955
-8.86863
-8.84697
-8.82465
-8.80176
-8.77833
-8.75442
-8.73004
-8.70522
-8.67993
-8.65413
-8.62776
-8.6007
-8.57277
-8.54375
-8.51336
-8.48107
-8.4461
-8.40834
-8.36737
-8.32255
-8.27302
-8.21789
-8.15628
-8.08712
-8.00933
-7.92163
-7.82268
-7.711
-7.58509
-7.44352
-7.28482
-7.10752
-6.91006
-6.69089
-6.4484
-6.18116
-5.88782
-5.56699
-5.2175
-4.83835
-4.4288
-3.98818
-3.5163
-3.01331
-2.47977
-1.91649
-1.32485
-0.706699
-0.0642914
0.599824
1.28264
1.9807
2.6901
3.40665
4.12598
4.84361
5.55515
6.25624
6.94286
7.61119
8.25792
8.88012
9.47548
10.0422
10.579
11.0852
11.5605
12.005
12.4192
12.8039
13.1599
13.4884
13.7904
14.0671
14.3196
14.5493
14.7576
14.9458
15.1155
15.2681
15.405
15.5275
15.6369
15.7343
15.8209
15.8977
15.9656
16.0255
16.0781
16.1242
16.1645
16.1996
16.23
16.2562
16.2788
16.2982
16.3149
16.3294
16.3422
16.354
16.3655
16.3779
16.3925
16.4111
16.4371
16.471
16.5249
16.564
-7.90645
-7.91419
-7.92279
-7.92999
-7.93563
-7.93957
-7.94199
-7.94322
-7.94361
-7.9434
-7.94299
-7.94272
-7.94297
-7.944
-7.9461
-7.94956
-7.95478
-7.96212
-7.97193
-7.98451
-8.00015
-8.01898
-8.041
-8.06607
-8.09404
-8.12473
-8.15795
-8.19344
-8.23093
-8.2701
-8.31062
-8.35214
-8.39432
-8.4368
-8.47926
-8.52136
-8.56283
-8.60339
-8.64281
-8.68087
-8.7174
-8.75223
-8.78523
-8.8163
-8.84533
-8.87228
-8.89707
-8.91967
-8.94004
-8.95819
-8.97408
-8.98776
-8.99918
-9.00841
-9.01544
-9.02032
-9.02307
-9.02375
-9.02237
-9.01904
-9.01377
-9.00666
-8.99776
-8.98717
-8.97496
-8.96125
-8.9461
-8.92964
-8.91197
-8.89321
-8.87345
-8.85284
-8.83146
-8.80944
-8.78687
-8.76386
-8.74046
-8.71674
-8.69274
-8.66847
-8.64393
-8.61908
-8.59385
-8.56815
-8.54178
-8.51455
-8.48619
-8.45614
-8.42393
-8.38895
-8.35132
-8.30994
-8.2642
-8.2131
-8.1559
-8.09144
-8.01873
-7.9364
-7.84318
-7.7376
-7.61812
-7.48332
-7.33148
-7.16132
-6.971
-6.75925
-6.5242
-6.26469
-5.97898
-5.66597
-5.32414
-4.95272
-4.55065
-4.11754
-3.65291
-3.15703
-2.63018
-2.07325
-1.48742
-0.874534
-0.236717
0.423482
1.10308
1.79865
2.50625
3.22179
3.94078
4.65884
5.37139
6.07418
6.76295
7.43405
8.08395
8.70988
9.3094
9.88084
10.4228
10.9347
11.4159
11.8666
12.2871
12.6781
13.0403
13.3748
13.6826
13.9649
14.223
14.458
14.6714
14.8646
15.0391
15.1963
15.3376
15.4643
15.5777
15.6789
15.7691
15.8492
15.9202
15.983
16.0383
16.0869
16.1295
16.1667
16.1991
16.2271
16.2514
16.2724
16.2905
16.3063
16.3202
16.3329
16.345
16.3575
16.3716
16.3886
16.4108
16.4371
16.4753
16.488
-7.87893
-7.89059
-7.9048
-7.91566
-7.92367
-7.92938
-7.93318
-7.93551
-7.93683
-7.93751
-7.93796
-7.93857
-7.93976
-7.94187
-7.94526
-7.95026
-7.95722
-7.96641
-7.97811
-7.99251
-8.00978
-8.02998
-8.05315
-8.07917
-8.10792
-8.13917
-8.17271
-8.20824
-8.2455
-8.28415
-8.3239
-8.36442
-8.4054
-8.44653
-8.48753
-8.5281
-8.56798
-8.60695
-8.64478
-8.68127
-8.71627
-8.74962
-8.78119
-8.81089
-8.83862
-8.86431
-8.88789
-8.90934
-8.9286
-8.94567
-8.96052
-8.97317
-8.98359
-8.99183
-8.99787
-9.00177
-9.00354
-9.00324
-9.00088
-8.99657
-8.99031
-8.98223
-8.97235
-8.9608
-8.94764
-8.933
-8.91696
-8.89964
-8.88116
-8.86165
-8.84121
-8.82001
-8.79814
-8.77575
-8.75294
-8.72984
-8.70653
-8.68309
-8.65958
-8.63604
-8.61246
-8.58883
-8.56509
-8.54114
-8.5168
-8.49186
-8.46605
-8.43894
-8.40971
-8.37852
-8.34454
-8.30733
-8.26588
-8.21948
-8.16717
-8.10798
-8.04075
-7.96426
-7.87717
-7.77801
-7.66528
-7.53735
-7.39267
-7.2296
-7.04663
-6.84214
-6.61459
-6.3624
-6.0841
-5.77826
-5.44353
-5.07887
-4.68345
-4.25664
-3.79805
-3.30769
-2.78586
-2.23334
-1.65131
-1.04148
-0.405935
0.252775
0.93166
1.62721
2.33553
3.05241
3.77338
4.49392
5.20946
5.91563
6.60819
7.28339
7.93776
8.56845
9.17309
9.74982
10.2973
10.8146
11.3014
11.7576
12.1834
12.5795
12.9467
13.2858
13.5982
13.8847
14.1469
14.3858
14.6031
14.8001
14.9782
15.1389
15.2835
15.4135
15.5299
15.6341
15.7271
15.8098
15.8834
15.9485
16.006
16.0567
16.1012
16.1401
16.174
16.2035
16.2291
16.2512
16.2704
16.287
16.3016
16.3147
16.3269
16.3391
16.352
16.3667
16.3843
16.4027
16.4275
16.419
-7.85121
-7.86636
-7.88591
-7.90037
-7.91092
-7.91877
-7.92439
-7.92832
-7.93112
-7.93323
-7.93514
-7.93724
-7.93999
-7.94374
-7.9489
-7.95576
-7.96466
-7.97581
-7.98945
-8.00568
-8.02463
-8.04629
-8.07064
-8.09757
-8.12696
-8.15857
-8.19219
-8.22757
-8.26442
-8.30245
-8.34138
-8.3809
-8.42074
-8.4606
-8.50023
-8.53937
-8.57778
-8.61523
-8.65155
-8.68655
-8.72006
-8.75196
-8.78212
-8.81045
-8.83684
-8.86124
-8.88356
-8.90379
-8.92186
-8.93776
-8.95146
-8.96298
-8.97228
-8.97939
-8.98432
-8.9871
-8.98773
-8.9863
-8.9828
-8.97734
-8.96994
-8.9607
-8.94969
-8.93702
-8.92276
-8.90705
-8.88998
-8.87169
-8.8523
-8.83195
-8.81078
-8.78894
-8.76656
-8.7438
-8.72078
-8.69763
-8.67448
-8.65141
-8.6285
-8.60582
-8.58337
-8.56115
-8.53913
-8.51718
-8.49516
-8.47286
-8.45002
-8.42609
-8.40068
-8.37326
-8.34368
-8.31109
-8.2745
-8.23329
-8.18639
-8.13293
-8.07164
-8.00138
-7.92078
-7.8283
-7.72251
-7.60157
-7.4641
-7.3082
-7.13259
-6.93534
-6.71516
-6.4701
-6.19891
-5.89983
-5.57182
-5.21349
-4.82417
-4.40293
-3.94952
-3.46366
-2.94579
-2.39649
-1.81699
-1.20882
-0.574094
0.0846522
0.76437
1.46147
2.17206
2.89175
3.61614
4.34049
5.0603
5.77099
6.46846
7.14874
7.80855
8.4448
9.05513
9.63753
10.1906
10.7135
11.2056
11.6669
12.0976
12.4983
12.8698
13.213
13.529
13.8192
14.0846
14.3268
14.5472
14.7471
14.9281
15.0916
15.2389
15.3714
15.4904
15.5969
15.6921
15.7771
15.8527
15.9198
15.9791
16.0316
16.0776
16.118
16.1532
16.1839
16.2105
16.2336
16.2535
16.2707
16.2857
16.2989
16.3109
16.3222
16.3336
16.3453
16.3581
16.3689
16.3821
16.3565
-7.8272
-7.84517
-7.86914
-7.8867
-7.89958
-7.90954
-7.91711
-7.92284
-7.92735
-7.93117
-7.93481
-7.93867
-7.94323
-7.94883
-7.95588
-7.96464
-7.97542
-7.9884
-8.00377
-8.0216
-8.04198
-8.06485
-8.09019
-8.11786
-8.14773
-8.17957
-8.21319
-8.24833
-8.28473
-8.32212
-8.36024
-8.3988
-8.43755
-8.47622
-8.51458
-8.55238
-8.58942
-8.62548
-8.6604
-8.69399
-8.72612
-8.75665
-8.78547
-8.81248
-8.83758
-8.86071
-8.8818
-8.90081
-8.91767
-8.93238
-8.9449
-8.95522
-8.96333
-8.96925
-8.97296
-8.97451
-8.97391
-8.97121
-8.96644
-8.95969
-8.951
-8.94047
-8.92817
-8.91422
-8.89872
-8.88179
-8.86356
-8.84417
-8.82376
-8.80249
-8.78051
-8.75799
-8.73508
-8.71194
-8.68874
-8.66561
-8.64269
-8.62011
-8.59794
-8.57628
-8.55514
-8.53455
-8.51447
-8.4948
-8.47539
-8.45604
-8.43646
-8.41621
-8.39469
-8.37182
-8.34696
-8.31935
-8.28816
-8.25252
-8.21156
-8.1642
-8.1093
-8.04564
-7.97182
-7.88635
-7.78757
-7.67386
-7.54351
-7.39497
-7.22654
-7.03661
-6.82347
-6.58546
-6.32097
-6.0285
-5.70672
-5.3544
-4.97053
-4.55428
-4.10518
-3.62307
-3.1082
-2.5612
-1.98314
-1.37554
-0.74049
-0.0805537
0.601125
1.30093
2.01484
2.73846
3.46722
4.19638
4.92132
5.63744
6.34057
7.02675
7.69251
8.33476
8.95099
9.53918
10.0979
10.6261
11.1233
11.5894
12.0247
12.4295
12.8048
13.1515
13.4708
13.764
14.0323
14.2773
14.5002
14.7026
14.886
15.0517
15.2012
15.3358
15.4568
15.5653
15.6624
15.7491
15.8264
15.8952
15.9562
16.0101
16.0576
16.0992
16.1356
16.1674
16.1949
16.2187
16.2392
16.2568
16.2719
16.285
16.2964
16.3066
16.3161
16.3247
16.3326
16.3361
16.3394
16.3001
-7.80959
-7.82966
-7.85666
-7.87648
-7.89125
-7.90302
-7.91237
-7.91982
-7.92604
-7.93158
-7.93696
-7.94259
-7.94893
-7.95632
-7.96513
-7.97562
-7.98806
-8.00259
-8.01939
-8.03849
-8.05996
-8.08373
-8.10976
-8.1379
-8.16802
-8.19992
-8.23339
-8.26819
-8.30409
-8.34082
-8.37814
-8.41579
-8.45352
-8.4911
-8.52831
-8.56491
-8.60071
-8.63552
-8.66918
-8.70151
-8.73239
-8.76169
-8.78928
-8.81508
-8.83899
-8.86094
-8.88085
-8.89869
-8.91438
-8.92792
-8.93924
-8.94837
-8.95525
-8.95993
-8.96237
-8.96262
-8.96068
-8.95663
-8.95048
-8.94232
-8.9322
-8.92025
-8.90652
-8.89115
-8.87425
-8.85597
-8.83644
-8.81583
-8.79428
-8.77199
-8.74911
-8.72584
-8.70235
-8.67884
-8.65546
-8.6324
-8.60979
-8.58779
-8.5665
-8.54602
-8.52639
-8.50764
-8.48974
-8.4726
-8.45608
-8.43998
-8.42402
-8.40773
-8.39075
-8.37247
-8.35281
-8.3306
-8.30517
-8.27553
-8.24087
-8.20003
-8.1519
-8.0952
-8.02846
-7.95026
-7.85868
-7.75233
-7.62921
-7.48807
-7.32684
-7.14418
-6.93796
-6.70687
-6.44889
-6.16279
-5.84686
-5.50009
-5.12107
-4.7092
-4.26372
-3.78462
-3.27195
-2.72639
-2.14884
-1.54089
-0.904575
-0.242547
0.441971
1.14534
1.86338
2.59172
3.32559
4.06033
4.79109
5.51339
6.22276
6.91533
7.58737
8.23585
8.85806
9.45202
10.0162
10.5496
11.0517
11.5223
11.9616
12.3702
12.749
13.0988
13.421
13.7168
13.9876
14.2348
14.46
14.6645
14.8498
15.0175
15.1688
15.3052
15.4279
15.538
15.6367
15.725
15.8038
15.8739
15.9363
15.9915
16.0402
16.083
16.1205
16.1531
16.1815
16.2059
16.2269
16.2447
16.2598
16.2726
16.2833
16.2922
16.2994
16.3048
16.3079
16.3047
16.2994
16.249
-7.79993
-7.82125
-7.84967
-7.87077
-7.88681
-7.89993
-7.91069
-7.91958
-7.92728
-7.93434
-7.94127
-7.94847
-7.95638
-7.96531
-7.97562
-7.98752
-8.00128
-8.01701
-8.03488
-8.05488
-8.07708
-8.10141
-8.12781
-8.15614
-8.18628
-8.21803
-8.25119
-8.28554
-8.32086
-8.35691
-8.39345
-8.43023
-8.46703
-8.50363
-8.53981
-8.57535
-8.61008
-8.64381
-8.67637
-8.70762
-8.73741
-8.76562
-8.79215
-8.81688
-8.83972
-8.8606
-8.87943
-8.89618
-8.91076
-8.92317
-8.93333
-8.94126
-8.94691
-8.95031
-8.95143
-8.95032
-8.94697
-8.94147
-8.93383
-8.92414
-8.91248
-8.89895
-8.88365
-8.86673
-8.84829
-8.82852
-8.80756
-8.78559
-8.76279
-8.73937
-8.7155
-8.69141
-8.6673
-8.64338
-8.61983
-8.59686
-8.57462
-8.55329
-8.533
-8.51384
-8.49589
-8.47918
-8.46368
-8.44933
-8.43599
-8.42343
-8.41141
-8.3995
-8.38705
-8.37411
-8.35974
-8.34337
-8.32396
-8.30073
-8.27266
-8.23869
-8.19765
-8.14817
-8.08884
-8.01796
-7.93389
-7.83483
-7.71921
-7.58532
-7.43148
-7.25585
-7.05667
-6.83216
-6.58062
-6.30044
-5.99011
-5.64827
-5.27371
-4.86555
-4.42318
-3.9464
-3.43531
-2.89046
-2.31276
-1.70376
-1.06555
-0.400851
0.287099
0.994536
1.71728
2.45087
3.19052
3.9314
4.66864
5.39757
6.11367
6.81288
7.49144
8.14617
8.77438
9.37399
9.94346
10.4818
10.9884
11.4632
11.9063
12.3183
12.7001
13.0528
13.3775
13.6756
13.9485
14.1977
14.4248
14.631
14.8181
14.9874
15.1404
15.2783
15.4025
15.514
15.6141
15.7037
15.7838
15.8552
15.9187
15.975
16.0248
16.0686
16.107
16.1406
16.1696
16.1946
16.216
16.234
16.249
16.2613
16.2711
16.2786
16.2836
16.2857
16.2843
16.2749
16.2622
16.2027
-7.79852
-7.82013
-7.8485
-7.86993
-7.88657
-7.90043
-7.91209
-7.92201
-7.93082
-7.93904
-7.94719
-7.95562
-7.96476
-7.97487
-7.98631
-7.99925
-8.01394
-8.03047
-8.04901
-8.06954
-8.09212
-8.11666
-8.14314
-8.1714
-8.20133
-8.23274
-8.26546
-8.29926
-8.33396
-8.3693
-8.40507
-8.44104
-8.477
-8.51271
-8.54799
-8.58263
-8.61645
-8.64926
-8.68092
-8.71126
-8.74015
-8.76746
-8.79307
-8.81688
-8.8388
-8.85874
-8.87661
-8.89235
-8.90591
-8.91723
-8.92626
-8.933
-8.93741
-8.9395
-8.93925
-8.93671
-8.93187
-8.92481
-8.91556
-8.90423
-8.89087
-8.87564
-8.85862
-8.83999
-8.81987
-8.79846
-8.77592
-8.75247
-8.7283
-8.70363
-8.6787
-8.65372
-8.62893
-8.60457
-8.58085
-8.55799
-8.53618
-8.51561
-8.49641
-8.47872
-8.46261
-8.44813
-8.43526
-8.42393
-8.41401
-8.40528
-8.39749
-8.39013
-8.38286
-8.37512
-8.36657
-8.35626
-8.34318
-8.32657
-8.30535
-8.27848
-8.24474
-8.20265
-8.15084
-8.08736
-8.01079
-7.91908
-7.81094
-7.6843
-7.53773
-7.369
-7.17664
-6.95847
-6.71307
-6.43844
-6.13332
-5.79599
-5.42547
-5.0206
-4.58095
-4.10607
-3.59617
-3.05159
-2.47337
-1.86299
-1.22262
-0.554964
0.136754
0.848657
1.57661
2.31595
3.06193
3.80943
4.5536
5.28944
6.01251
6.71845
7.40355
8.06447
8.69854
9.30361
9.87813
10.4211
10.9319
11.4105
11.857
12.2721
12.6567
13.0118
13.3387
13.6389
13.9137
14.1646
14.3933
14.6011
14.7897
14.9604
15.1148
15.2541
15.3796
15.4924
15.5937
15.6845
15.7658
15.8383
15.9029
15.9602
16.0109
16.0557
16.095
16.1293
16.159
16.1845
16.2062
16.2243
16.2392
16.2509
16.2598
16.2657
16.2685
16.2675
16.2617
16.2468
16.2277
16.1608
-7.80468
-7.82568
-7.85279
-7.8737
-7.89024
-7.90424
-7.91623
-7.92666
-7.93611
-7.94506
-7.954
-7.96324
-7.97319
-7.98408
-7.99623
-8.00979
-8.02501
-8.04196
-8.06079
-8.08148
-8.1041
-8.12856
-8.15484
-8.18279
-8.21231
-8.24322
-8.27537
-8.30856
-8.34258
-8.37722
-8.41226
-8.44747
-8.48265
-8.51758
-8.55209
-8.58596
-8.61903
-8.6511
-8.68204
-8.71166
-8.73984
-8.76642
-8.79132
-8.81438
-8.83553
-8.85466
-8.87167
-8.88652
-8.8991
-8.90938
-8.91731
-8.92286
-8.926
-8.92674
-8.92507
-8.92101
-8.91457
-8.90584
-8.89485
-8.88172
-8.86653
-8.84943
-8.83054
-8.81003
-8.78807
-8.76487
-8.74061
-8.71554
-8.68987
-8.66386
-8.63775
-8.61182
-8.58631
-8.56148
-8.53759
-8.51487
-8.49354
-8.47379
-8.4558
-8.4397
-8.4256
-8.41352
-8.40348
-8.39539
-8.38912
-8.38447
-8.38114
-8.37869
-8.37658
-8.3746
-8.372
-8.36789
-8.36136
-8.35149
-8.33728
-8.31763
-8.29122
-8.25665
-8.2122
-8.15623
-8.08693
-8.0027
-7.90176
-7.78242
-7.64275
-7.48091
-7.29495
-7.08305
-6.84337
-6.57418
-6.27386
-5.94095
-5.57421
-5.17263
-4.73554
-4.26255
-3.75367
-3.20927
-2.63033
-2.01836
-1.37552
-0.704507
-0.00861193
0.708288
1.44188
2.18748
2.94011
3.69458
4.44581
5.18876
5.91875
6.63141
7.32288
7.98981
8.62948
9.23974
9.81901
10.3663
10.8809
11.3629
11.8125
12.2303
12.6173
12.9746
13.3035
13.6054
13.8818
14.1343
14.3643
14.5736
14.7635
14.9355
15.0911
15.2317
15.3584
15.4724
15.5749
15.6668
15.7492
15.8227
15.8883
15.9466
15.9983
16.0439
16.084
16.1191
16.1494
16.1753
16.1972
16.2154
16.23
16.2413
16.2492
16.2536
16.2542
16.2501
16.2404
16.2205
16.1958
16.1228
-7.81716
-7.83686
-7.86179
-7.88143
-7.89724
-7.91075
-7.92251
-7.93292
-7.9425
-7.9517
-7.96094
-7.97054
-7.98084
-7.99206
-8.00449
-8.01828
-8.03363
-8.05062
-8.06939
-8.08992
-8.11227
-8.13638
-8.16222
-8.18966
-8.21861
-8.24891
-8.28041
-8.31291
-8.34624
-8.38017
-8.4145
-8.44901
-8.48351
-8.51778
-8.55164
-8.5849
-8.61738
-8.64888
-8.67926
-8.70833
-8.73597
-8.76202
-8.78634
-8.80881
-8.82932
-8.84776
-8.86402
-8.87803
-8.8897
-8.89898
-8.90581
-8.91016
-8.91198
-8.91131
-8.9081
-8.90242
-8.89425
-8.8837
-8.87081
-8.85572
-8.83851
-8.81936
-8.7984
-8.77583
-8.75183
-8.72665
-8.70049
-8.67362
-8.64628
-8.61878
-8.59138
-8.56438
-8.53805
-8.51272
-8.48862
-8.46604
-8.4452
-8.42635
-8.40965
-8.39526
-8.38328
-8.37377
-8.36674
-8.36209
-8.35969
-8.35934
-8.3607
-8.36334
-8.36683
-8.37056
-8.37417
-8.37646
-8.3766
-8.37363
-8.36653
-8.35419
-8.33517
-8.30809
-8.27103
-8.22252
-8.16053
-8.08372
-7.98997
-7.87783
-7.74501
-7.58995
-7.41033
-7.20461
-6.97059
-6.70681
-6.4113
-6.08278
-5.71973
-5.32132
-4.8866
-4.41527
-3.90709
-3.36253
-2.78244
-2.16841
-1.52262
-0.847771
-0.147273
0.575008
1.31453
2.06661
2.82598
3.5875
4.34572
5.09567
5.83237
6.55149
7.249
7.92159
8.56648
9.18151
9.76513
10.3162
10.8343
11.3194
11.7716
12.1918
12.5809
12.9401
13.2707
13.5741
13.852
14.1058
14.3371
14.5476
14.7387
14.9119
15.0687
15.2104
15.3383
15.4534
15.557
15.6501
15.7334
15.808
15.8746
15.9338
15.9864
16.0329
16.0738
16.1095
16.1404
16.1668
16.1889
16.2071
16.2215
16.2322
16.2391
16.242
16.2405
16.2336
16.2202
16.1958
16.1663
16.0883
-7.83449
-7.85239
-7.87455
-7.89233
-7.90684
-7.91931
-7.93028
-7.94012
-7.94931
-7.95823
-7.96728
-7.97674
-7.98692
-7.99802
-8.01032
-8.02391
-8.03903
-8.0557
-8.07408
-8.09414
-8.11597
-8.13949
-8.16469
-8.19146
-8.21972
-8.2493
-8.28007
-8.31184
-8.34444
-8.37764
-8.41129
-8.44516
-8.47907
-8.5128
-8.54617
-8.57896
-8.611
-8.64209
-8.67208
-8.70076
-8.72801
-8.75365
-8.77753
-8.79951
-8.81947
-8.83728
-8.85283
-8.86603
-8.87678
-8.88502
-8.89067
-8.89371
-8.89409
-8.89183
-8.88689
-8.87936
-8.86923
-8.85663
-8.84159
-8.82428
-8.8048
-8.78333
-8.76002
-8.73511
-8.7088
-8.68136
-8.65305
-8.62415
-8.59495
-8.56577
-8.53691
-8.50872
-8.4815
-8.45557
-8.43125
-8.40882
-8.38854
-8.37066
-8.35536
-8.34285
-8.33318
-8.32647
-8.32266
-8.32172
-8.32349
-8.32772
-8.33409
-8.3422
-8.35132
-8.36141
-8.37136
-8.38038
-8.38742
-8.39158
-8.39182
-8.38689
-8.37548
-8.35586
-8.32641
-8.28526
-8.23082
-8.16127
-8.07489
-7.96974
-7.8439
-7.69536
-7.52216
-7.32233
-7.09397
-6.83524
-6.54439
-6.21983
-5.86023
-5.4645
-5.0318
-4.56157
-4.05361
-3.50832
-2.92659
-2.31005
-1.66087
-0.981883
-0.276509
0.451242
1.19682
1.95529
2.72136
3.48966
4.25466
5.01119
5.7542
6.47921
7.18221
7.85982
8.50929
9.12847
9.71579
10.2702
10.7912
11.2788
11.7333
12.1555
12.5464
12.9071
13.2392
13.544
13.8231
14.0781
14.3106
14.5222
14.7145
14.8889
15.0468
15.1896
15.3186
15.4349
15.5396
15.6337
15.7181
15.7938
15.8613
15.9215
15.975
16.0224
16.064
16.1004
16.1318
16.1586
16.181
16.1992
16.2134
16.2235
16.2295
16.231
16.2275
16.2179
16.2012
16.1729
16.1391
16.0572
-7.85518
-7.87099
-7.89005
-7.90556
-7.91829
-7.92922
-7.93886
-7.9476
-7.95584
-7.96394
-7.97227
-7.98107
-7.99065
-8.00117
-8.01288
-8.02588
-8.04037
-8.05639
-8.07406
-8.09339
-8.11444
-8.13715
-8.16153
-8.18745
-8.21485
-8.24359
-8.27354
-8.30453
-8.33638
-8.36889
-8.4019
-8.43519
-8.46858
-8.50185
-8.5348
-8.56722
-8.59894
-8.62973
-8.65944
-8.68784
-8.71479
-8.74008
-8.76358
-8.78511
-8.80453
-8.8217
-8.83649
-8.8488
-8.85852
-8.86558
-8.8699
-8.87145
-8.87018
-8.8661
-8.85921
-8.84957
-8.83722
-8.82225
-8.80477
-8.78489
-8.76279
-8.73865
-8.71268
-8.68512
-8.65624
-8.6263
-8.59561
-8.56449
-8.53325
-8.50225
-8.47185
-8.4424
-8.41426
-8.38777
-8.3633
-8.3411
-8.32153
-8.30478
-8.29113
-8.2807
-8.27365
-8.27
-8.26979
-8.27289
-8.27914
-8.28825
-8.3001
-8.31383
-8.32938
-8.34577
-8.36253
-8.37849
-8.39266
-8.40412
-8.41182
-8.41441
-8.4106
-8.39846
-8.37653
-8.3427
-8.29566
-8.23326
-8.15403
-8.05564
-7.93651
-7.79421
-7.62709
-7.4328
-7.20972
-6.95562
-6.66897
-6.34791
-5.99127
-5.59771
-5.16647
-4.69677
-4.18855
-3.64207
-3.05841
-2.43914
-1.78651
-1.1034
-0.39322
0.339857
1.0913
1.85585
2.62822
3.4027
4.17386
4.93617
5.68469
6.41473
7.12235
7.80414
8.45734
9.07985
9.6701
10.2271
10.7504
11.24
11.6963
12.1201
12.5124
12.8746
13.2078
13.5138
13.7941
14.0502
14.2839
14.4966
14.69
14.8655
15.0246
15.1686
15.2987
15.4161
15.522
15.6172
15.7028
15.7795
15.8481
15.9094
15.9638
16.012
16.0545
16.0915
16.1235
16.1507
16.1734
16.1917
16.2056
16.2153
16.2204
16.2206
16.2152
16.2032
16.1835
16.1517
16.1142
16.0291
-7.87886
-7.8925
-7.90841
-7.92135
-7.93183
-7.94067
-7.9484
-7.95539
-7.96205
-7.9687
-7.9757
-7.98326
-7.99166
-8.00105
-8.01166
-8.02356
-8.03695
-8.05184
-8.06839
-8.08656
-8.10646
-8.12801
-8.15124
-8.17603
-8.20234
-8.23002
-8.25899
-8.28905
-8.32007
-8.35183
-8.38419
-8.41689
-8.44979
-8.48262
-8.51522
-8.54734
-8.5788
-8.60936
-8.63884
-8.66699
-8.69367
-8.71863
-8.74172
-8.76273
-8.78154
-8.79795
-8.81185
-8.8231
-8.83161
-8.83728
-8.84003
-8.83985
-8.83666
-8.83051
-8.82137
-8.80935
-8.79444
-8.77683
-8.75656
-8.73386
-8.70884
-8.68179
-8.6529
-8.62246
-8.59075
-8.5581
-8.52483
-8.49134
-8.45796
-8.42511
-8.39313
-8.36248
-8.33347
-8.30657
-8.28205
-8.26029
-8.24169
-8.22633
-8.21466
-8.20663
-8.20259
-8.20236
-8.20615
-8.21362
-8.22474
-8.23936
-8.25683
-8.27694
-8.29881
-8.32209
-8.34579
-8.36883
-8.39027
-8.40914
-8.42428
-8.43444
-8.43799
-8.43333
-8.41856
-8.39204
-8.35196
-8.29659
-8.22396
-8.13218
-8.01914
-7.88284
-7.72117
-7.53211
-7.31363
-7.06377
-6.78067
-6.46273
-6.1085
-5.71673
-5.28647
-4.81705
-4.30834
-3.76069
-3.17513
-2.55329
-1.89742
-1.21037
-0.495726
0.24232
0.998998
1.769
2.54676
3.32654
4.10272
4.86978
5.62262
6.35662
7.06777
7.7527
8.40868
9.03362
9.62601
10.1849
10.7099
11.201
11.6587
12.0837
12.4772
12.8405
13.1749
13.482
13.7634
14.0207
14.2555
14.4694
14.664
14.8407
15.0011
15.1463
15.2777
15.3965
15.5036
15.6001