/*--------------------------------*- C++ -*----------------------------------*\
  =========                 |
  \\      /  F ield         | OpenFOAM: The Open Source CFD Toolbox
   \\    /   O peration     | Website:  https://openfoam.org
    \\  /    A nd           | Version:  12
     \\/     M anipulation  |
\*---------------------------------------------------------------------------*/
FoamFile
{
    format      ascii;
    class       surfaceScalarField;
    location    "100";
    object      phi;
}
// * * * * * * * * * * * * * * * * * * * * * * * * * * * * * * * * * * * * * //

dimensions      [0 3 -1 0 0 0 0];

internalField   nonuniform List<scalar> 
24170
(
3.129e-06
5.94074e-08
3.04659e-06
8.24028e-08
2.97346e-06
7.31284e-08
2.90476e-06
6.86895e-08
2.84035e-06
6.44083e-08
2.78291e-06
5.74383e-08
2.73344e-06
4.94581e-08
2.69131e-06
4.21268e-08
2.65541e-06
3.58998e-08
2.62466e-06
3.07459e-08
2.59805e-06
2.66006e-08
2.5747e-06
2.33474e-08
2.55385e-06
2.08432e-08
2.53476e-06
1.90895e-08
2.51676e-06
1.79905e-08
2.49782e-06
1.89397e-08
2.47782e-06
2.00047e-08
3.85726e-08
2.43924e-06
3.45306e-06
2.35947e-08
3.457e-06
7.84664e-08
3.45052e-06
7.96052e-08
3.43903e-06
8.017e-08
3.42421e-06
7.92243e-08
3.40691e-06
7.47327e-08
3.38761e-06
6.87551e-08
3.36698e-06
6.27532e-08
3.3457e-06
5.71803e-08
3.32434e-06
5.20998e-08
3.30338e-06
4.75602e-08
3.28307e-06
4.3655e-08
3.26358e-06
4.0328e-08
3.24489e-06
3.77745e-08
3.22711e-06
3.57643e-08
3.21003e-06
3.60191e-08
3.19419e-06
3.5846e-08
4.76844e-08
3.18508e-06
3.66815e-06
1.79581e-08
3.67918e-06
6.74363e-08
3.68538e-06
7.3398e-08
3.68938e-06
7.61665e-08
3.69093e-06
7.76691e-08
3.68991e-06
7.5756e-08
3.68669e-06
7.19685e-08
3.68174e-06
6.76954e-08
3.67545e-06
6.34658e-08
3.66814e-06
5.94142e-08
3.66005e-06
5.56398e-08
3.65143e-06
5.22728e-08
3.64242e-06
4.93302e-08
3.63316e-06
4.70399e-08
3.62361e-06
4.53115e-08
3.61429e-06
4.5337e-08
3.60427e-06
4.58564e-08
5.18572e-08
3.6001e-06
3.92584e-06
1.75052e-08
3.93589e-06
5.73823e-08
3.94252e-06
6.67728e-08
3.94802e-06
7.06636e-08
3.95238e-06
7.33054e-08
3.95526e-06
7.28749e-08
3.95684e-06
7.03837e-08
3.95736e-06
6.71716e-08
3.957e-06
6.38186e-08
3.95591e-06
6.05069e-08
3.9542e-06
5.73487e-08
3.95197e-06
5.44926e-08
3.94931e-06
5.19918e-08
3.9463e-06
5.00485e-08
3.94293e-06
4.86777e-08
3.93969e-06
4.85727e-08
3.93636e-06
4.91895e-08
5.21272e-08
3.93609e-06
4.20819e-06
1.64406e-08
4.21596e-06
4.96143e-08
4.22162e-06
6.11028e-08
4.22668e-06
6.55989e-08
4.23138e-06
6.86117e-08
4.23527e-06
6.89747e-08
4.23835e-06
6.7306e-08
4.2407e-06
6.48095e-08
4.24245e-06
6.2071e-08
4.24366e-06
5.92931e-08
4.24441e-06
5.65969e-08
4.24477e-06
5.41299e-08
4.24479e-06
5.19698e-08
4.24455e-06
5.02791e-08
4.24412e-06
4.91119e-08
4.24386e-06
4.88292e-08
4.24389e-06
4.91556e-08
5.03959e-08
4.24562e-06
4.5107e-06
1.48261e-08
4.51685e-06
4.34606e-08
4.52207e-06
5.58856e-08
4.52684e-06
6.08267e-08
4.53149e-06
6.39581e-08
4.53566e-06
6.48019e-08
4.53924e-06
6.37275e-08
4.54228e-06
6.17668e-08
4.54485e-06
5.94942e-08
4.54702e-06
5.71254e-08
4.54882e-06
5.47911e-08
4.55032e-06
5.2629e-08
4.55156e-06
5.07285e-08
4.55262e-06
4.92116e-08
4.5536e-06
4.81311e-08
4.55478e-06
4.7645e-08
4.55637e-06
4.75662e-08
4.77277e-08
4.55904e-06
4.83432e-06
1.32245e-08
4.8396e-06
3.81811e-08
4.84469e-06
5.07918e-08
4.84934e-06
5.61679e-08
4.85391e-06
5.93849e-08
4.85815e-06
6.05614e-08
4.86192e-06
5.99512e-08
4.86527e-06
5.84198e-08
4.86824e-06
5.65216e-08
4.87087e-06
5.44838e-08
4.87322e-06
5.2443e-08
4.87532e-06
5.05258e-08
4.87722e-06
4.88222e-08
4.87901e-06
4.74185e-08
4.88079e-06
4.63499e-08
4.88278e-06
4.56573e-08
4.88516e-06
4.51832e-08
4.46502e-08
4.88823e-06
5.18104e-06
1.17669e-08
5.18572e-06
3.34945e-08
5.19069e-06
4.58223e-08
5.19529e-06
5.15633e-08
5.19981e-06
5.48611e-08
5.20409e-06
5.62805e-08
5.20799e-06
5.60513e-08
5.21152e-06
5.48849e-08
5.21474e-06
5.33055e-08
5.21767e-06
5.1549e-08
5.22035e-06
4.9755e-08
5.22284e-06
4.80389e-08
5.22517e-06
4.64845e-08
5.22744e-06
4.51507e-08
5.22973e-06
4.40524e-08
5.23222e-06
4.31712e-08
5.23503e-06
4.23679e-08
4.13882e-08
5.23829e-06
5.55268e-06
1.04205e-08
5.55686e-06
2.93156e-08
5.56163e-06
4.10459e-08
5.56619e-06
4.69998e-08
5.57069e-06
5.03566e-08
5.57502e-06
5.19509e-08
5.57903e-06
5.20382e-08
5.58272e-06
5.1193e-08
5.58612e-06
4.98956e-08
5.58928e-06
4.83874e-08
5.59223e-06
4.6807e-08
5.595e-06
4.52607e-08
5.59766e-06
4.38222e-08
5.60028e-06
4.25317e-08
5.60294e-06
4.13889e-08
5.60576e-06
4.03508e-08
5.60882e-06
3.92992e-08
3.80352e-08
5.61217e-06
5.95103e-06
9.16631e-09
5.95476e-06
2.55867e-08
5.9593e-06
3.65038e-08
5.96381e-06
4.24892e-08
5.96829e-06
4.58679e-08
5.97266e-06
4.75787e-08
5.97678e-06
4.79209e-08
5.98061e-06
4.73562e-08
5.98419e-06
4.63103e-08
5.98755e-06
4.50237e-08
5.99073e-06
4.36323e-08
5.99375e-06
4.22329e-08
5.99668e-06
4.08893e-08
5.99958e-06
3.96303e-08
6.00252e-06
3.84467e-08
6.00558e-06
3.72914e-08
6.0088e-06
3.60708e-08
3.46479e-08
6.01219e-06
6.37797e-06
8.00382e-09
6.38132e-06
2.22389e-08
6.38562e-06
3.22029e-08
6.39006e-06
3.80442e-08
6.39452e-06
4.13967e-08
6.39893e-06
4.31717e-08
6.40314e-06
4.37073e-08
6.40711e-06
4.33798e-08
6.41086e-06
4.25563e-08
6.41442e-06
4.14673e-08
6.4178e-06
4.02446e-08
6.42106e-06
3.89756e-08
6.42423e-06
3.77162e-08
6.42737e-06
3.64875e-08
6.43053e-06
3.52799e-08
6.43377e-06
3.40517e-08
6.4371e-06
3.27369e-08
3.12459e-08
6.4405e-06
5.74175e-06
7.08491e-09
5.74432e-06
1.96684e-08
5.74777e-06
2.87552e-08
5.75146e-06
3.43477e-08
5.75522e-06
3.76346e-08
5.75896e-06
3.94277e-08
5.76258e-06
4.00794e-08
5.76604e-06
3.99163e-08
5.76934e-06
3.92576e-08
5.77249e-06
3.83181e-08
5.7755e-06
3.72243e-08
5.77842e-06
3.60568e-08
5.78127e-06
3.48644e-08
5.78409e-06
3.36678e-08
5.78691e-06
3.24572e-08
5.78975e-06
3.12027e-08
5.79263e-06
2.98553e-08
2.83616e-08
5.79551e-06
6.99913e-06
6.11038e-09
7.00185e-06
1.69455e-08
7.00559e-06
2.50111e-08
7.00972e-06
3.02112e-08
7.014e-06
3.33528e-08
7.01831e-06
3.51186e-08
7.02253e-06
3.58541e-08
7.0266e-06
3.58392e-08
7.03052e-06
3.53408e-08
7.03428e-06
3.45529e-08
7.03791e-06
3.35926e-08
7.04143e-06
3.25336e-08
7.04487e-06
3.14198e-08
7.04827e-06
3.02697e-08
7.05164e-06
2.90806e-08
7.05501e-06
2.7832e-08
7.05836e-06
2.64971e-08
2.50435e-08
7.06168e-06
8.53187e-06
5.08605e-09
8.53472e-06
1.4097e-08
8.53873e-06
2.09963e-08
8.5433e-06
2.56374e-08
8.54812e-06
2.85285e-08
8.55303e-06
3.01995e-08
8.55791e-06
3.09692e-08
8.56268e-06
3.10697e-08
8.5673e-06
3.07174e-08
8.57177e-06
3.00756e-08
8.57611e-06
2.92525e-08
8.58033e-06
2.83107e-08
8.58446e-06
2.72917e-08
8.58851e-06
2.6213e-08
8.59251e-06
2.50795e-08
8.59645e-06
2.38821e-08
8.60034e-06
2.26103e-08
2.12504e-08
8.60413e-06
1.04003e-05
4.02049e-09
1.04032e-05
1.11407e-08
1.04075e-05
1.6729e-08
1.04125e-05
2.06313e-08
1.04179e-05
2.31376e-08
1.04235e-05
2.46264e-08
1.04291e-05
2.53595e-08
1.04346e-05
2.55277e-08
1.044e-05
2.52927e-08
1.04453e-05
2.47884e-08
1.04505e-05
2.4101e-08
1.04555e-05
2.32907e-08
1.04604e-05
2.23881e-08
1.04652e-05
2.14168e-08
1.04699e-05
2.03824e-08
1.04744e-05
1.92906e-08
1.04789e-05
1.81389e-08
1.69271e-08
1.04832e-05
1.26779e-05
2.91615e-09
1.2681e-05
8.0694e-09
1.26855e-05
1.22038e-08
1.26909e-05
1.51797e-08
1.26969e-05
1.71457e-08
1.27032e-05
1.83389e-08
1.27096e-05
1.89512e-08
1.2716e-05
1.91225e-08
1.27223e-05
1.8969e-08
1.27285e-05
1.85833e-08
1.27346e-05
1.80361e-08
1.27405e-05
1.73706e-08
1.27463e-05
1.66179e-08
1.27519e-05
1.57942e-08
1.27574e-05
1.49144e-08
1.27627e-05
1.39843e-08
1.27678e-05
1.30144e-08
1.20029e-08
1.27727e-05
1.54543e-05
1.76102e-09
1.54576e-05
4.8339e-09
1.54624e-05
7.35823e-09
1.54684e-05
9.21678e-09
1.5475e-05
1.04694e-08
1.54821e-05
1.12383e-08
1.54894e-05
1.16332e-08
1.54968e-05
1.17387e-08
1.55042e-05
1.16229e-08
1.55114e-05
1.13415e-08
1.55185e-05
1.09377e-08
1.55254e-05
1.04421e-08
1.55322e-05
9.87522e-09
1.55387e-05
9.25155e-09
1.5545e-05
8.58253e-09
1.55511e-05
7.878e-09
1.5557e-05
7.14776e-09
6.39313e-09
1.55626e-05
1.88389e-05
5.12538e-10
1.88424e-05
1.30867e-09
1.88477e-05
2.01536e-09
1.88544e-05
2.54613e-09
1.8862e-05
2.90453e-09
1.88701e-05
3.11569e-09
1.88785e-05
3.20087e-09
1.88871e-05
3.17992e-09
1.88956e-05
3.07077e-09
1.89041e-05
2.88934e-09
1.89124e-05
2.64787e-09
1.89204e-05
2.35711e-09
1.89283e-05
2.02501e-09
1.89359e-05
1.65871e-09
1.89432e-05
1.26444e-09
1.89502e-05
8.4891e-10
1.89569e-05
4.19576e-10
-2.44317e-11
1.89634e-05
2.29648e-05
-9.33913e-10
2.29689e-05
-2.79555e-09
2.29751e-05
-4.2453e-09
2.2983e-05
-5.31145e-09
2.29919e-05
-6.02827e-09
2.30015e-05
-6.48761e-09
2.30115e-05
-6.7735e-09
2.30216e-05
-6.94561e-09
2.30317e-05
-7.03673e-09
2.30417e-05
-7.08379e-09
2.30514e-05
-7.10818e-09
2.30609e-05
-7.13031e-09
2.30701e-05
-7.15446e-09
2.30789e-05
-7.18877e-09
2.30874e-05
-7.23134e-09
2.30956e-05
-7.28583e-09
2.31033e-05
-7.34621e-09
-7.41999e-09
2.31107e-05
1.68118e-05
-2.07193e-09
1.6815e-05
-5.98971e-09
1.68199e-05
-9.11994e-09
1.6826e-05
-1.13744e-08
1.68328e-05
-1.28305e-08
1.684e-05
-1.37126e-08
1.68474e-05
-1.42156e-08
1.68549e-05
-1.44372e-08
1.68623e-05
-1.44652e-08
1.68696e-05
-1.43622e-08
1.68767e-05
-1.41904e-08
1.68835e-05
-1.39763e-08
1.68901e-05
-1.37486e-08
1.68965e-05
-1.35125e-08
1.69025e-05
-1.32837e-08
1.69083e-05
-1.30594e-08
1.69138e-05
-1.28472e-08
-1.26455e-08
1.6919e-05
1.46357e-05
-3.16413e-09
1.46388e-05
-9.09714e-09
1.46435e-05
-1.38728e-08
1.46493e-05
-1.71778e-08
1.46557e-05
-1.91948e-08
1.46623e-05
-2.03774e-08
1.46691e-05
-2.09921e-08
1.46759e-05
-2.1182e-08
1.46825e-05
-2.1073e-08
1.46889e-05
-2.07861e-08
1.46951e-05
-2.03928e-08
1.4701e-05
-1.99422e-08
1.47068e-05
-1.94609e-08
1.47122e-05
-1.89718e-08
1.47174e-05
-1.84851e-08
1.47224e-05
-1.80109e-08
1.47271e-05
-1.75492e-08
-1.71091e-08
1.47315e-05
1.27412e-05
-4.18647e-09
1.27443e-05
-1.22417e-08
1.27492e-05
-1.87384e-08
1.27549e-05
-2.28757e-08
1.27609e-05
-2.52436e-08
1.27671e-05
-2.66183e-08
1.27734e-05
-2.72635e-08
1.27796e-05
-2.73276e-08
1.27855e-05
-2.70193e-08
1.27912e-05
-2.65038e-08
1.27967e-05
-2.58703e-08
1.28019e-05
-2.51729e-08
1.28069e-05
-2.44439e-08
1.28116e-05
-2.37123e-08
1.28161e-05
-2.29878e-08
1.28204e-05
-2.22848e-08
1.28245e-05
-2.16007e-08
-2.09454e-08
1.28283e-05
1.10918e-05
-5.04004e-09
1.1095e-05
-1.54783e-08
1.11002e-05
-2.38959e-08
1.11058e-05
-2.85473e-08
1.11116e-05
-3.10381e-08
1.11175e-05
-3.25026e-08
1.11233e-05
-3.30732e-08
1.11289e-05
-3.29318e-08
1.11343e-05
-3.23798e-08
1.11394e-05
-3.16141e-08
1.11442e-05
-3.0729e-08
1.11489e-05
-2.97789e-08
1.11532e-05
-2.88097e-08
1.11573e-05
-2.78437e-08
1.11613e-05
-2.69023e-08
1.1165e-05
-2.59869e-08
1.11685e-05
-2.51061e-08
-2.42583e-08
1.11718e-05
9.65582e-06
-5.64895e-09
9.65926e-06
-1.89214e-08
9.66463e-06
-2.92698e-08
9.67017e-06
-3.40856e-08
9.67578e-06
-3.66481e-08
9.68139e-06
-3.81223e-08
9.68679e-06
-3.84744e-08
9.69189e-06
-3.80359e-08
9.69672e-06
-3.72077e-08
9.70128e-06
-3.61829e-08
9.7056e-06
-3.50421e-08
9.70966e-06
-3.38446e-08
9.71349e-06
-3.26369e-08
9.71709e-06
-3.14494e-08
9.72048e-06
-3.0295e-08
9.72368e-06
-2.91827e-08
9.72668e-06
-2.8113e-08
-2.70846e-08
9.7295e-06
8.4053e-06
-5.601e-09
8.40965e-06
-2.32752e-08
8.41491e-06
-3.45323e-08
8.41997e-06
-3.9147e-08
8.42538e-06
-4.20575e-08
8.43084e-06
-4.35821e-08
8.43598e-06
-4.36186e-08
8.44074e-06
-4.28065e-08
8.44518e-06
-4.1646e-08
8.44931e-06
-4.03129e-08
8.45314e-06
-3.88771e-08
8.4567e-06
-3.74022e-08
8.45999e-06
-3.59366e-08
8.46305e-06
-3.45078e-08
8.46588e-06
-3.31303e-08
8.46851e-06
-3.18112e-08
8.47095e-06
-3.0551e-08
-2.93512e-08
8.47321e-06
7.3145e-06
-2.81983e-09
7.32121e-06
-2.9983e-08
7.32678e-06
-4.01086e-08
7.33176e-06
-4.41252e-08
7.33719e-06
-4.74902e-08
7.34255e-06
-4.89464e-08
7.34747e-06
-4.8546e-08
7.35194e-06
-4.72738e-08
7.35597e-06
-4.56823e-08
7.35958e-06
-4.39287e-08
7.3628e-06
-4.20965e-08
7.36565e-06
-4.02547e-08
7.36817e-06
-3.8461e-08
7.3704e-06
-3.67355e-08
7.37236e-06
-3.5093e-08
7.37408e-06
-3.35375e-08
7.3756e-06
-3.20688e-08
-3.06805e-08
7.37693e-06
6.36244e-06
4.80645e-09
6.37191e-06
-3.94589e-08
6.37935e-06
-4.75523e-08
6.38601e-06
-5.07862e-08
6.39232e-06
-5.38024e-08
6.39767e-06
-5.4295e-08
6.402e-06
-5.28814e-08
6.40552e-06
-5.07991e-08
6.40837e-06
-4.85301e-08
6.4106e-06
-4.61646e-08
6.41228e-06
-4.37781e-08
6.41348e-06
-4.14538e-08
6.41425e-06
-3.92388e-08
6.41467e-06
-3.71514e-08
6.41477e-06
-3.52037e-08
6.41463e-06
-3.33931e-08
6.41428e-06
-3.17216e-08
-3.01657e-08
6.41377e-06
5.54131e-06
8.9574e-09
5.55034e-06
-4.84857e-08
5.55836e-06
-5.5577e-08
5.56608e-06
-5.85128e-08
5.57256e-06
-6.02874e-08
5.57692e-06
-5.86491e-08
5.57919e-06
-5.5156e-08
5.57978e-06
-5.13947e-08
5.57906e-06
-4.78159e-08
5.57732e-06
-4.44191e-08
5.57476e-06
-4.12273e-08
5.57159e-06
-3.82833e-08
5.56794e-06
-3.55948e-08
5.56394e-06
-3.31522e-08
5.55968e-06
-3.09517e-08
5.55526e-06
-2.89779e-08
5.55078e-06
-2.72299e-08
-2.5662e-08
5.54627e-06
4.86021e-06
-2.36508e-08
4.86538e-06
-5.36584e-08
4.86524e-06
-5.54347e-08
4.86219e-06
-5.54635e-08
4.85703e-06
-5.51328e-08
4.84954e-06
-5.11699e-08
4.83987e-06
-4.54888e-08
4.82851e-06
-4.0033e-08
4.81596e-06
-3.52742e-08
4.80272e-06
-3.11767e-08
4.78916e-06
-2.76676e-08
4.77556e-06
-2.46867e-08
4.76211e-06
-2.21526e-08
4.74895e-06
-1.99954e-08
4.73616e-06
-1.81675e-08
4.72381e-06
-1.66361e-08
4.71202e-06
-1.54389e-08
-1.50958e-08
4.70146e-06
4.17903e-06
4.12537e-06
4.06993e-06
4.01447e-06
3.95933e-06
3.90816e-06
3.86267e-06
3.82264e-06
3.78737e-06
3.75619e-06
3.72852e-06
3.70383e-06
3.68168e-06
3.66168e-06
3.64352e-06
3.62688e-06
3.61144e-06
3.59634e-06
2.06022e-08
-2.07331e-08
4.48524e-08
-2.43527e-08
6.56987e-08
-2.09826e-08
8.11431e-08
-1.55035e-08
9.02251e-08
-9.202e-09
9.29211e-08
-2.74567e-09
8.94004e-08
3.39713e-09
8.04548e-08
8.89998e-09
6.67529e-08
1.3579e-08
4.93384e-08
1.73729e-08
2.89281e-08
2.02923e-08
6.35104e-09
2.25401e-08
-1.81705e-08
2.44064e-08
-4.432e-08
2.61171e-08
-7.20576e-08
2.76304e-08
-1.00683e-07
2.85982e-08
-1.30754e-07
2.99802e-08
-1.64116e-07
3.33367e-08
-2.04861e-07
4.06407e-08
-2.55718e-07
5.08131e-08
-3.0688e-07
5.09758e-08
-3.51628e-07
4.46944e-08
-4.03651e-07
5.1842e-08
-4.61564e-07
5.78811e-08
-5.2369e-07
6.19597e-08
-5.88672e-07
6.49498e-08
-6.56059e-07
6.72159e-08
-7.24908e-07
6.88097e-08
-7.94836e-07
6.97615e-08
-8.65006e-07
7.01225e-08
-9.35113e-07
6.99324e-08
-1.00444e-06
6.92664e-08
-1.07279e-06
6.81817e-08
-1.13962e-06
6.67628e-08
-1.20487e-06
6.50704e-08
-1.26813e-06
6.31872e-08
-1.32946e-06
6.11644e-08
-1.3886e-06
5.9073e-08
-1.4457e-06
5.69482e-08
-1.5006e-06
5.48437e-08
-1.55352e-06
5.27772e-08
-1.60435e-06
5.0786e-08
-1.65335e-06
4.88722e-08
-1.70046e-06
4.70608e-08
-1.74592e-06
4.5344e-08
-1.78971e-06
4.37388e-08
-1.83205e-06
4.22313e-08
-1.87294e-06
4.08338e-08
-1.91258e-06
3.95296e-08
-1.95096e-06
3.83287e-08
-1.98828e-06
3.72122e-08
-2.02452e-06
3.61886e-08
-2.05987e-06
3.52402e-08
-2.09432e-06
3.43749e-08
-2.12801e-06
3.35755e-08
-2.16096e-06
3.28512e-08
-2.19327e-06
3.21867e-08
-2.22498e-06
3.15916e-08
-2.25617e-06
3.10517e-08
-2.28688e-06
3.05763e-08
-2.31717e-06
3.01529e-08
-2.34711e-06
2.97902e-08
-2.37673e-06
2.94777e-08
-2.40611e-06
2.92233e-08
-2.43528e-06
2.90185e-08
-2.46431e-06
2.88695e-08
-2.49322e-06
2.87712e-08
-2.52211e-06
2.87275e-08
-2.55096e-06
2.87364e-08
-2.57992e-06
2.87971e-08
-2.60893e-06
2.89113e-08
-2.63816e-06
2.90746e-08
-2.66753e-06
2.92913e-08
-2.69725e-06
2.95493e-08
-2.7272e-06
2.98571e-08
-2.75759e-06
3.01972e-08
-2.78829e-06
3.05816e-08
-2.8195e-06
3.09937e-08
-2.85105e-06
3.14448e-08
-2.88317e-06
3.19022e-08
-2.91566e-06
3.23829e-08
-2.94874e-06
3.28568e-08
-2.98216e-06
3.33424e-08
-3.01618e-06
3.37894e-08
-3.05048e-06
3.42163e-08
-3.08524e-06
3.45571e-08
-3.12005e-06
3.47831e-08
-3.15455e-06
3.44755e-08
-3.1891e-06
3.47124e-08
-3.22396e-06
3.52002e-08
-3.25857e-06
3.48738e-08
-3.29288e-06
3.45118e-08
-3.32684e-06
3.4095e-08
-3.36008e-06
3.33625e-08
-3.39246e-06
3.24704e-08
-3.42366e-06
3.12949e-08
-3.45329e-06
2.96806e-08
-3.48103e-06
2.77764e-08
-3.50615e-06
2.5099e-08
-3.52833e-06
2.21136e-08
-3.54817e-06
1.96856e-08
-3.56445e-06
1.60253e-08
-3.57657e-06
1.17591e-08
-3.58425e-06
7.18381e-09
-3.58696e-06
2.18802e-09
-3.58508e-06
-2.4552e-09
-3.57852e-06
-7.06568e-09
-3.56719e-06
-1.18435e-08
-3.55058e-06
-1.6987e-08
-3.52927e-06
-2.17101e-08
-3.50244e-06
-2.70913e-08
-3.46944e-06
-3.32765e-08
-3.43078e-06
-3.87932e-08
-3.38631e-06
-4.461e-08
-3.33549e-06
-5.08379e-08
-3.2781e-06
-5.7411e-08
-3.21399e-06
-6.40119e-08
-3.1434e-06
-7.04578e-08
-3.06633e-06
-7.68155e-08
-2.98291e-06
-8.31912e-08
-2.8931e-06
-8.96001e-08
-2.79715e-06
-9.58549e-08
-2.69511e-06
-1.01922e-07
-2.58725e-06
-1.07752e-07
-2.47376e-06
-1.13246e-07
-2.35506e-06
-1.18395e-07
-2.23152e-06
-1.23122e-07
-2.10364e-06
-1.27419e-07
-1.97189e-06
-1.31227e-07
-1.83682e-06
-1.34533e-07
-1.69896e-06
-1.37299e-07
-1.55889e-06
-1.39516e-07
-1.41718e-06
-1.41176e-07
-1.27438e-06
-1.42287e-07
-1.13104e-06
-1.4288e-07
-9.8764e-07
-1.42965e-07
-8.44683e-07
-1.42588e-07
-7.02599e-07
-1.41777e-07
-5.61816e-07
-1.4057e-07
-4.22736e-07
-1.38954e-07
-2.85334e-07
-1.37341e-07
-1.48959e-07
-1.36378e-07
-1.24529e-08
-1.36543e-07
1.23528e-07
-1.36063e-07
2.56413e-07
-1.32984e-07
3.84786e-07
-1.28497e-07
5.08178e-07
-1.23517e-07
6.26379e-07
-1.18338e-07
7.39361e-07
-1.13113e-07
8.47128e-07
-1.07902e-07
9.49771e-07
-1.02772e-07
1.04741e-06
-9.77691e-08
1.14019e-06
-9.2899e-08
1.22824e-06
-8.81722e-08
1.31176e-06
-8.36359e-08
1.39094e-06
-7.92925e-08
1.46596e-06
-7.51197e-08
1.53697e-06
-7.11047e-08
1.60413e-06
-6.72657e-08
1.66765e-06
-6.35992e-08
1.72768e-06
-6.01206e-08
1.78441e-06
-5.68023e-08
1.83796e-06
-5.36324e-08
1.8885e-06
-5.05993e-08
1.93614e-06
-4.77075e-08
1.98102e-06
-4.49357e-08
2.02323e-06
-4.22767e-08
2.06289e-06
-3.97065e-08
2.10006e-06
-3.72141e-08
2.13477e-06
-3.47577e-08
2.16702e-06
-3.22951e-08
2.19673e-06
-2.97512e-08
2.22371e-06
-2.70211e-08
2.2476e-06
-2.39265e-08
2.26765e-06
-2.00931e-08
2.28252e-06
-1.49127e-08
2.2877e-06
-5.22071e-09
2.27397e-06
1.3687e-08
2.21993e-06
5.40029e-08
1.21395e-07
2.09852e-06
2.23274e-08
-4.31688e-08
3.73929e-08
-3.94992e-08
4.55578e-08
-2.92249e-08
4.85413e-08
-1.85276e-08
4.70994e-08
-7.82297e-09
4.16404e-08
2.67878e-09
3.22476e-08
1.27266e-08
1.89921e-08
2.21224e-08
1.79676e-09
3.07093e-08
-1.9256e-08
3.83928e-08
-4.42057e-08
4.5177e-08
-7.29216e-08
5.1225e-08
-1.054e-07
5.68212e-08
-1.41576e-07
6.22636e-08
-1.81816e-07
6.78066e-08
-2.26956e-07
7.37087e-08
-2.77403e-07
8.03625e-08
-3.32583e-07
8.84793e-08
-3.90189e-07
9.81808e-08
-4.47315e-07
1.07896e-07
-5.10822e-07
1.14415e-07
-5.83929e-07
1.17761e-07
-6.54593e-07
1.22445e-07
-7.23894e-07
1.2715e-07
-7.92979e-07
1.30986e-07
-8.61781e-07
1.33716e-07
-9.30015e-07
1.35388e-07
-9.97284e-07
1.36043e-07
-1.06332e-06
1.35733e-07
-1.12779e-06
1.34547e-07
-1.19051e-06
1.32594e-07
-1.25129e-06
1.30003e-07
-1.31008e-06
1.26899e-07
-1.36677e-06
1.23409e-07
-1.42142e-06
1.19644e-07
-1.47399e-06
1.1571e-07
-1.52459e-06
1.11695e-07
-1.57324e-06
1.07678e-07
-1.62008e-06
1.03718e-07
-1.66514e-06
9.98679e-08
-1.70858e-06
9.61592e-08
-1.75045e-06
9.26202e-08
-1.7909e-06
8.9264e-08
-1.82998e-06
8.61025e-08
-1.86782e-06
8.31358e-08
-1.90449e-06
8.03661e-08
-1.9401e-06
7.77858e-08
-1.9747e-06
7.53922e-08
-2.00839e-06
7.31743e-08
-2.04123e-06
7.11272e-08
-2.07331e-06
6.92382e-08
-2.10466e-06
6.7502e-08
-2.13538e-06
6.59063e-08
-2.16551e-06
6.44474e-08
-2.19511e-06
6.31142e-08
-2.22422e-06
6.19043e-08
-2.25291e-06
6.08087e-08
-2.28122e-06
5.9827e-08
-2.30919e-06
5.89512e-08
-2.33688e-06
5.81818e-08
-2.36432e-06
5.75122e-08
-2.39155e-06
5.69446e-08
-2.41863e-06
5.64733e-08
-2.4456e-06
5.61004e-08
-2.47249e-06
5.5821e-08
-2.49935e-06
5.5637e-08
-2.5262e-06
5.55442e-08
-2.55311e-06
5.55441e-08
-2.58009e-06
5.56327e-08
-2.60718e-06
5.58095e-08
-2.63441e-06
5.60704e-08
-2.66183e-06
5.64119e-08
-2.68943e-06
5.6829e-08
-2.71728e-06
5.73145e-08
-2.74536e-06
5.78605e-08
-2.77371e-06
5.84569e-08
-2.80232e-06
5.91e-08
-2.8312e-06
5.97752e-08
-2.86031e-06
6.04711e-08
-2.88969e-06
6.11658e-08
-2.91924e-06
6.18488e-08
-2.94897e-06
6.24924e-08
-2.97879e-06
6.30778e-08
-3.00867e-06
6.35645e-08
-3.03847e-06
6.39285e-08
-3.06812e-06
6.41173e-08
-3.09749e-06
6.40951e-08
-3.12683e-06
6.38064e-08
-3.15551e-06
6.35195e-08
-3.18325e-06
6.31215e-08
-3.21046e-06
6.22456e-08
-3.23681e-06
6.09763e-08
-3.26199e-06
5.93483e-08
-3.28584e-06
5.72804e-08
-3.30808e-06
5.47493e-08
-3.32845e-06
5.17066e-08
-3.3468e-06
4.80469e-08
-3.36283e-06
4.38138e-08
-3.3767e-06
3.89244e-08
-3.38822e-06
3.35715e-08
-3.39662e-06
2.79449e-08
-3.40238e-06
2.15888e-08
-3.40546e-06
1.45352e-08
-3.40561e-06
6.9889e-09
-3.40279e-06
-1.04157e-09
-3.39613e-06
-9.48281e-09
-3.38515e-06
-1.84196e-08
-3.36944e-06
-2.78628e-08
-3.34893e-06
-3.77966e-08
-3.32279e-06
-4.8073e-08
-3.29117e-06
-5.89243e-08
-3.25418e-06
-7.04057e-08
-3.21097e-06
-8.21347e-08
-3.16142e-06
-9.42182e-08
-3.1056e-06
-1.06701e-07
-3.04338e-06
-1.19611e-07
-2.97467e-06
-1.32683e-07
-2.89929e-06
-1.45722e-07
-2.81724e-06
-1.58716e-07
-2.72859e-06
-1.71686e-07
-2.63349e-06
-1.84587e-07
-2.53205e-06
-1.97239e-07
-2.42443e-06
-2.09505e-07
-2.31083e-06
-2.2127e-07
-2.19155e-06
-2.32389e-07
-2.06698e-06
-2.42778e-07
-1.93754e-06
-2.52322e-07
-1.80374e-06
-2.60955e-07
-1.66609e-06
-2.68583e-07
-1.52516e-06
-2.75156e-07
-1.38153e-06
-2.80614e-07
-1.23582e-06
-2.84931e-07
-1.08861e-06
-2.88096e-07
-9.40502e-07
-2.90131e-07
-7.92071e-07
-2.9107e-07
-6.43862e-07
-2.90965e-07
-4.96368e-07
-2.89903e-07
-3.50043e-07
-2.87972e-07
-2.05081e-07
-2.85444e-07
-6.14225e-08
-2.82578e-07
8.0509e-08
-2.79259e-07
2.19455e-07
-2.75342e-07
3.53577e-07
-2.7069e-07
4.82256e-07
-2.64792e-07
6.06476e-07
-2.57255e-07
7.26524e-07
-2.48616e-07
8.42292e-07
-2.39354e-07
9.53655e-07
-2.29782e-07
1.06054e-06
-2.20076e-07
1.16293e-06
-2.10375e-07
1.26084e-06
-2.00761e-07
1.35433e-06
-1.91335e-07
1.44347e-06
-1.8212e-07
1.52837e-06
-1.73157e-07
1.60915e-06
-1.64481e-07
1.68591e-06
-1.56128e-07
1.75879e-06
-1.48072e-07
1.82795e-06
-1.40334e-07
1.89353e-06
-1.32914e-07
1.95569e-06
-1.2582e-07
2.01457e-06
-1.19052e-07
2.0703e-06
-1.12591e-07
2.12302e-06
-1.06407e-07
2.17287e-06
-1.00496e-07
2.21996e-06
-9.48426e-08
2.26441e-06
-8.94254e-08
2.30631e-06
-8.42162e-08
2.34575e-06
-7.91896e-08
2.38281e-06
-7.43024e-08
2.41751e-06
-6.94901e-08
2.44984e-06
-6.46607e-08
2.47975e-06
-5.96829e-08
2.50704e-06
-5.43462e-08
2.53141e-06
-4.83228e-08
2.55227e-06
-4.09804e-08
2.56854e-06
-3.12129e-08
2.57959e-06
-1.62989e-08
2.58467e-06
8.58487e-09
2.58167e-06
5.69759e-08
1.48157e-07
2.5549e-06
1.0829e-08
-5.40892e-08
1.32214e-08
-4.19539e-08
1.08183e-08
-2.68798e-08
4.61298e-09
-1.23516e-08
-4.92705e-09
1.6722e-09
-1.75376e-08
1.52656e-08
-3.32515e-08
2.83984e-08
-5.21627e-08
4.10116e-08
-7.45312e-08
5.30353e-08
-1.00575e-07
6.44154e-08
-1.30583e-07
7.51427e-08
-1.64678e-07
8.52986e-08
-2.02963e-07
9.50646e-08
-2.45395e-07
1.04674e-07
-2.91974e-07
1.14344e-07
-3.42528e-07
1.2424e-07
-3.96613e-07
1.34405e-07
-4.52977e-07
1.44817e-07
-5.10039e-07
1.55199e-07
-5.66985e-07
1.64814e-07
-6.25363e-07
1.72752e-07
-6.86441e-07
1.78811e-07
-7.47931e-07
1.83896e-07
-8.08846e-07
1.8804e-07
-8.68949e-07
1.91051e-07
-9.28101e-07
1.9284e-07
-9.86153e-07
1.934e-07
-1.04292e-06
1.92781e-07
-1.09831e-06
1.91084e-07
-1.15223e-06
1.88439e-07
-1.20467e-06
1.84989e-07
-1.25557e-06
1.80882e-07
-1.30498e-06
1.76264e-07
-1.35288e-06
1.71274e-07
-1.39931e-06
1.66038e-07
-1.4443e-06
1.60667e-07
-1.4879e-06
1.55257e-07
-1.53014e-06
1.49888e-07
-1.57108e-06
1.44626e-07
-1.61076e-06
1.3952e-07
-1.64924e-06
1.34609e-07
-1.68657e-06
1.29919e-07
-1.7228e-06
1.25467e-07
-1.75799e-06
1.21262e-07
-1.79219e-06
1.17308e-07
-1.82545e-06
1.13603e-07
-1.85785e-06
1.10144e-07
-1.8894e-06
1.06922e-07
-1.92019e-06
1.0393e-07
-1.95025e-06
1.01158e-07
-1.97964e-06
9.85949e-08
-2.0084e-06
9.62315e-08
-2.03659e-06
9.40571e-08
-2.06424e-06
9.20631e-08
-2.09141e-06
9.02405e-08
-2.11813e-06
8.85824e-08
-2.14445e-06
8.70816e-08
-2.1704e-06
8.57333e-08
-2.19603e-06
8.45318e-08
-2.22137e-06
8.34736e-08
-2.24647e-06
8.25546e-08
-2.27135e-06
8.17729e-08
-2.29606e-06
8.11253e-08
-2.32062e-06
8.06107e-08
-2.34508e-06
8.02261e-08
-2.36947e-06
7.99702e-08
-2.39383e-06
7.98402e-08
-2.41817e-06
7.98343e-08
-2.44254e-06
7.9949e-08
-2.46697e-06
8.01805e-08
-2.49147e-06
8.05234e-08
-2.51608e-06
8.09718e-08
-2.54082e-06
8.15179e-08
-2.56571e-06
8.21506e-08
-2.59076e-06
8.28591e-08
-2.61599e-06
8.36303e-08
-2.64139e-06
8.44507e-08
-2.66698e-06
8.5303e-08
-2.69273e-06
8.61666e-08
-2.71864e-06
8.70163e-08
-2.74468e-06
8.78278e-08
-2.77082e-06
8.85689e-08
-2.797e-06
8.9205e-08
-2.82319e-06
8.96936e-08
-2.84932e-06
8.99951e-08
-2.87532e-06
9.0061e-08
-2.90113e-06
8.98538e-08
-2.92668e-06
8.93528e-08
-2.95169e-06
8.8588e-08
-2.97597e-06
8.75295e-08
-2.99962e-06
8.59943e-08
-3.02252e-06
8.39169e-08
-3.04443e-06
8.1302e-08
-3.06521e-06
7.80782e-08
-3.08466e-06
7.42142e-08
-3.10261e-06
6.9648e-08
-3.11889e-06
6.43265e-08
-3.13334e-06
5.82282e-08
-3.14582e-06
5.136e-08
-3.15609e-06
4.37588e-08
-3.16376e-06
3.54816e-08
-3.16876e-06
2.64041e-08
-3.17092e-06
1.64427e-08
-3.16988e-06
5.6721e-09
-3.16532e-06
-5.9134e-09
-3.15678e-06
-1.82922e-08
-3.14399e-06
-3.14927e-08
-3.12658e-06
-4.5487e-08
-3.10433e-06
-6.02691e-08
-3.07678e-06
-7.57769e-08
-3.04382e-06
-9.20424e-08
-3.00524e-06
-1.09075e-07
-2.96069e-06
-1.26779e-07
-2.90994e-06
-1.45003e-07
-2.85295e-06
-1.63729e-07
-2.78959e-06
-1.82947e-07
-2.71978e-06
-2.02468e-07
-2.64334e-06
-2.22059e-07
-2.5603e-06
-2.41662e-07
-2.47068e-06
-2.61193e-07
-2.37464e-06
-2.80565e-07
-2.27229e-06
-2.99549e-07
-2.16382e-06
-3.17953e-07
-2.04946e-06
-3.3557e-07
-1.92954e-06
-3.52222e-07
-1.80444e-06
-3.6774e-07
-1.67462e-06
-3.81975e-07
-1.54059e-06
-3.94791e-07
-1.4029e-06
-4.06069e-07
-1.26213e-06
-4.15714e-07
-1.11888e-06
-4.23651e-07
-9.73766e-07
-4.29838e-07
-8.274e-07
-4.34265e-07
-6.80386e-07
-4.36965e-07
-5.33299e-07
-4.37995e-07
-3.86686e-07
-4.37438e-07
-2.41017e-07
-4.35459e-07
-9.65974e-08
-4.32304e-07
4.61206e-08
-4.28108e-07
1.86356e-07
-4.22775e-07
3.23345e-07
-4.16229e-07
4.56518e-07
-4.08494e-07
5.85346e-07
-3.99507e-07
7.09647e-07
-3.89079e-07
8.29639e-07
-3.77246e-07
9.45399e-07
-3.6437e-07
1.05687e-06
-3.50827e-07
1.16399e-06
-3.36905e-07
1.26673e-06
-3.22823e-07
1.36509e-06
-3.08739e-07
1.45911e-06
-2.94784e-07
1.54884e-06
-2.81064e-07
1.63435e-06
-2.67649e-07
1.71577e-06
-2.54579e-07
1.79318e-06
-2.41906e-07
1.86672e-06
-2.29673e-07
1.93653e-06
-2.17898e-07
2.00278e-06
-2.06584e-07
2.06558e-06
-1.95733e-07
2.1251e-06
-1.85343e-07
2.18145e-06
-1.75419e-07
2.23479e-06
-1.65937e-07
2.28524e-06
-1.56872e-07
2.33294e-06
-1.48201e-07
2.37799e-06
-1.39907e-07
2.42051e-06
-1.31954e-07
2.4606e-06
-1.24312e-07
2.49834e-06
-1.16938e-07
2.5338e-06
-1.0977e-07
2.56702e-06
-1.02712e-07
2.59798e-06
-9.56395e-08
2.62665e-06
-8.836e-08
2.65289e-06
-8.05875e-08
2.67642e-06
-7.18666e-08
2.69683e-06
-6.1399e-08
2.71341e-06
-4.78017e-08
2.72542e-06
-2.83294e-08
2.73224e-06
1.75168e-09
2.73571e-06
5.34982e-08
1.45081e-07
2.73878e-06
-3.37667e-09
-5.07949e-08
-1.23347e-08
-3.30467e-08
-2.3824e-08
-1.54369e-08
-3.7681e-08
1.48196e-09
-5.38674e-08
1.78247e-08
-7.23884e-08
3.37697e-08
-9.33997e-08
4.93782e-08
-1.17048e-07
6.46448e-08
-1.43577e-07
7.9534e-08
-1.73178e-07
9.40012e-08
-2.0608e-07
1.08014e-07
-2.42377e-07
1.2158e-07
-2.82096e-07
1.34754e-07
-3.2505e-07
1.47612e-07
-3.70951e-07
1.60215e-07
-4.19288e-07
1.7256e-07
-4.69471e-07
1.84557e-07
-5.20725e-07
1.96051e-07
-5.72358e-07
2.068e-07
-6.24015e-07
2.16449e-07
-6.75935e-07
2.24641e-07
-7.28359e-07
2.31213e-07
-7.80789e-07
2.36295e-07
-8.32725e-07
2.39954e-07
-8.83909e-07
2.42204e-07
-9.34162e-07
2.4307e-07
-9.83408e-07
2.42613e-07
-1.03158e-06
2.40927e-07
-1.07866e-06
2.3814e-07
-1.12464e-06
2.34396e-07
-1.16954e-06
2.29851e-07
-1.21333e-06
2.24655e-07
-1.25606e-06
2.18958e-07
-1.2977e-06
2.129e-07
-1.3383e-06
2.06605e-07
-1.37784e-06
2.00189e-07
-1.41636e-06
1.93747e-07
-1.45386e-06
1.87363e-07
-1.49036e-06
1.81104e-07
-1.52588e-06
1.75021e-07
-1.56045e-06
1.69155e-07
-1.59408e-06
1.63534e-07
-1.62682e-06
1.58179e-07
-1.65868e-06
1.53102e-07
-1.6897e-06
1.48308e-07
-1.71992e-06
1.43798e-07
-1.74937e-06
1.39569e-07
-1.77808e-06
1.35615e-07
-1.80611e-06
1.31928e-07
-1.83347e-06
1.28499e-07
-1.86022e-06
1.25317e-07
-1.88639e-06
1.22372e-07
-1.91202e-06
1.19654e-07
-1.93714e-06
1.17154e-07
-1.96179e-06
1.14861e-07
-1.98601e-06
1.12769e-07
-2.00983e-06
1.1087e-07
-2.03329e-06
1.09157e-07
-2.05643e-06
1.07625e-07
-2.07926e-06
1.06271e-07
-2.10184e-06
1.05089e-07
-2.12418e-06
1.04077e-07
-2.14633e-06
1.03232e-07
-2.16831e-06
1.02551e-07
-2.19016e-06
1.02033e-07
-2.21191e-06
1.01675e-07
-2.23358e-06
1.01474e-07
-2.25522e-06
1.01427e-07
-2.27684e-06
1.01529e-07
-2.29848e-06
1.01776e-07
-2.32016e-06
1.02161e-07
-2.3419e-06
1.02676e-07
-2.36373e-06
1.0331e-07
-2.38567e-06
1.04052e-07
-2.40773e-06
1.04885e-07
-2.42994e-06
1.05794e-07
-2.45229e-06
1.0676e-07
-2.47479e-06
1.07759e-07
-2.49743e-06
1.08767e-07
-2.52021e-06
1.09751e-07
-2.5431e-06
1.10679e-07
-2.56609e-06
1.11511e-07
-2.58913e-06
1.12204e-07
-2.61219e-06
1.1271e-07
-2.63522e-06
1.12977e-07
-2.65816e-06
1.12955e-07
-2.68094e-06
1.12596e-07
-2.70346e-06
1.11863e-07
-2.72556e-06
1.10739e-07
-2.74712e-06
1.09157e-07
-2.7681e-06
1.07031e-07
-2.78841e-06
1.0426e-07
-2.80791e-06
1.00801e-07
-2.82642e-06
9.65866e-08
-2.84378e-06
9.15658e-08
-2.85983e-06
8.56737e-08
-2.87439e-06
7.8855e-08
-2.88728e-06
7.10694e-08
-2.89829e-06
6.23053e-08
-2.90719e-06
5.25561e-08
-2.91367e-06
4.18202e-08
-2.9175e-06
3.0042e-08
-2.91843e-06
1.71398e-08
-2.91615e-06
3.12841e-09
-2.91032e-06
-1.20053e-08
-2.90062e-06
-2.82401e-08
-2.88674e-06
-4.55913e-08
-2.86839e-06
-6.40266e-08
-2.84528e-06
-8.35447e-08
-2.8171e-06
-1.04088e-07
-2.78361e-06
-1.25653e-07
-2.74457e-06
-1.48196e-07
-2.69976e-06
-1.71657e-07
-2.64895e-06
-1.9585e-07
-2.59199e-06
-2.2071e-07
-2.52877e-06
-2.46148e-07
-2.45918e-06
-2.72015e-07
-2.3831e-06
-2.98061e-07
-2.30051e-06
-3.24166e-07
-2.21146e-06
-3.50153e-07
-2.11611e-06
-3.75882e-07