/*--------------------------------*- C++ -*----------------------------------*\
  =========                 |
  \\      /  F ield         | OpenFOAM: The Open Source CFD Toolbox
   \\    /   O peration     | Website:  https://openfoam.org
    \\  /    A nd           | Version:  12
     \\/     M anipulation  |
\*---------------------------------------------------------------------------*/
FoamFile
{
    format      ascii;
    class       volVectorField;
    location    "100";
    object      U;
}
// * * * * * * * * * * * * * * * * * * * * * * * * * * * * * * * * * * * * * //

dimensions      [0 1 -1 0 0 0 0];

internalField   nonuniform List<vector> 
12225
(
(9.85697 -0.886408 0)
(9.66659 -0.740744 0)
(9.45557 -0.429456 0)
(9.22421 -0.222187 0)
(9.00596 -0.106409 0)
(8.81353 -0.0458031 0)
(8.64618 -0.0151019 0)
(8.50357 0.000560816 0)
(8.38116 0.00852512 0)
(8.27764 0.0124692 0)
(8.18799 0.0142512 0)
(8.1104 0.0153853 0)
(8.04137 0.0159754 0)
(7.97942 0.0164583 0)
(7.92099 0.0170336 0)
(7.86797 0.0184391 0)
(7.7946 0.0212348 0)
(7.78496 0.0307646 0)
(10.0545 0.227555 0)
(10.121 0.326938 0)
(10.1196 0.261594 0)
(10.0855 0.186594 0)
(10.0432 0.134737 0)
(9.99637 0.101218 0)
(9.9435 0.0794379 0)
(9.88442 0.0647612 0)
(9.82276 0.0545281 0)
(9.75972 0.0470385 0)
(9.69772 0.041423 0)
(9.63705 0.0370884 0)
(9.57875 0.0337696 0)
(9.52298 0.0315074 0)
(9.469 0.0299461 0)
(9.41989 0.0314946 0)
(9.36627 0.0314383 0)
(9.33992 0.0548566 0)
(10.0035 0.0579261 0)
(10.0303 0.0560295 0)
(10.056 0.0338275 0)
(10.0702 0.032967 0)
(10.0767 0.0407558 0)
(10.0774 0.0466982 0)
(10.0719 0.0495684 0)
(10.0605 0.0505879 0)
(10.045 0.0505893 0)
(10.0261 0.0500188 0)
(10.005 0.0491815 0)
(9.98202 0.0483245 0)
(9.9579 0.0475957 0)
(9.93292 0.0473167 0)
(9.90706 0.0474262 0)
(9.88161 0.0496079 0)
(9.85486 0.0524016 0)
(9.83332 0.0649239 0)
(9.99778 0.0110667 0)
(10.011 0.0266406 0)
(10.0349 0.0372112 0)
(10.0523 0.0481814 0)
(10.0641 0.0555961 0)
(10.073 0.058386 0)
(10.0788 0.0586317 0)
(10.0815 0.0579907 0)
(10.0815 0.0570793 0)
(10.0796 0.0560739 0)
(10.076 0.0550723 0)
(10.0709 0.0542393 0)
(10.0646 0.0536393 0)
(10.0574 0.0535357 0)
(10.0492 0.0539987 0)
(10.0408 0.0561334 0)
(10.0323 0.0592762 0)
(10.0262 0.0672583 0)
(9.99935 0.00721581 0)
(10.009 0.0316996 0)
(10.0274 0.0440033 0)
(10.0416 0.0500508 0)
(10.0525 0.0537984 0)
(10.0624 0.0554949 0)
(10.0709 0.0558706 0)
(10.0774 0.055706 0)
(10.0822 0.0553313 0)
(10.0857 0.054858 0)
(10.0879 0.0543731 0)
(10.0893 0.0540216 0)
(10.0897 0.0538936 0)
(10.0894 0.0542142 0)
(10.0885 0.0551005 0)
(10.0876 0.0572121 0)
(10.0872 0.0602619 0)
(10.0886 0.0653492 0)
(10.0003 0.00920162 0)
(10.0083 0.031228 0)
(10.0226 0.0410468 0)
(10.0348 0.045552 0)
(10.0447 0.0492671 0)
(10.0543 0.0516903 0)
(10.0631 0.052786 0)
(10.0705 0.0531675 0)
(10.0767 0.0532311 0)
(10.0819 0.0531359 0)
(10.0863 0.052991 0)
(10.0899 0.0529351 0)
(10.0929 0.0530741 0)
(10.0955 0.0535894 0)
(10.0977 0.0545947 0)
(10.1 0.0564385 0)
(10.1028 0.0589608 0)
(10.1073 0.0622076 0)
(10.0004 0.00897365 0)
(10.0071 0.0271566 0)
(10.019 0.0365379 0)
(10.03 0.0415819 0)
(10.0393 0.045689 0)
(10.0482 0.0484583 0)
(10.0566 0.0498594 0)
(10.0641 0.050499 0)
(10.0706 0.0507964 0)
(10.0763 0.0509197 0)
(10.0815 0.0509787 0)
(10.0861 0.0510981 0)
(10.0902 0.051384 0)
(10.094 0.0519697 0)
(10.0976 0.052948 0)
(10.1014 0.0544717 0)
(10.1058 0.0564017 0)
(10.1113 0.058456 0)
(10.0004 0.00795054 0)
(10.006 0.0234634 0)
(10.016 0.0328828 0)
(10.0261 0.038327 0)
(10.0349 0.0424185 0)
(10.0432 0.04522 0)
(10.0511 0.0467797 0)
(10.0584 0.0476036 0)
(10.0649 0.0480735 0)
(10.0708 0.0483558 0)
(10.0762 0.0485586 0)
(10.0812 0.048793 0)
(10.0858 0.0491562 0)
(10.0902 0.0497433 0)
(10.0946 0.0506128 0)
(10.0991 0.0518048 0)
(10.1041 0.0531701 0)
(10.11 0.0543728 0)
(10.0004 0.00700071 0)
(10.005 0.0205241 0)
(10.0136 0.0296239 0)
(10.0227 0.0351212 0)
(10.0309 0.0390808 0)
(10.0388 0.0418748 0)
(10.0463 0.0435719 0)
(10.0533 0.0445545 0)
(10.0597 0.0451614 0)
(10.0656 0.0455629 0)
(10.071 0.0458662 0)
(10.0762 0.0461703 0)
(10.0811 0.0465584 0)
(10.0858 0.0470952 0)
(10.0905 0.0478068 0)
(10.0954 0.0486735 0)
(10.1006 0.0495511 0)
(10.1064 0.0501505 0)
(10.0004 0.00617567 0)
(10.0043 0.0179709 0)
(10.0116 0.0264681 0)
(10.0197 0.0318745 0)
(10.0274 0.0357201 0)
(10.0348 0.0384919 0)
(10.0419 0.0402832 0)
(10.0487 0.0413844 0)
(10.0549 0.0420931 0)
(10.0607 0.0425801 0)
(10.0662 0.0429495 0)
(10.0714 0.0432879 0)
(10.0764 0.0436627 0)
(10.0812 0.0441159 0)
(10.0861 0.0446512 0)
(10.0911 0.0452231 0)
(10.0964 0.0457058 0)
(10.102 0.0458773 0)
(10.0003 0.00542138 0)
(10.0036 0.0156724 0)
(10.0098 0.0234494 0)
(10.0171 0.0286686 0)
(10.0243 0.0323835 0)
(10.0312 0.0350904 0)
(10.038 0.0369184 0)
(10.0444 0.0380948 0)
(10.0505 0.0388732 0)
(10.0562 0.0394167 0)
(10.0616 0.0398234 0)
(10.0668 0.0401676 0)
(10.0719 0.0405031 0)
(10.0768 0.0408558 0)
(10.0817 0.0412167 0)
(10.0867 0.0415343 0)
(10.0918 0.0417068 0)
(10.0972 0.0415757 0)
(10.0003 0.00476115 0)
(10.0031 0.0137424 0)
(10.0085 0.0208216 0)
(10.0151 0.0257843 0)
(10.0218 0.0293421 0)
(10.0283 0.0319525 0)
(10.0347 0.0337697 0)
(10.0409 0.034979 0)
(10.0468 0.0357943 0)
(10.0524 0.0363655 0)
(10.0578 0.0367839 0)
(10.0629 0.0371135 0)
(10.0679 0.0373975 0)
(10.0729 0.0376526 0)
(10.0777 0.0378646 0)
(10.0827 0.0379868 0)
(10.0876 0.0379402 0)
(10.0927 0.0376181 0)
(10.0003 0.0041517 0)
(10.0027 0.0119798 0)
(10.0074 0.0183357 0)
(10.0133 0.0229646 0)
(10.0195 0.026329 0)
(10.0257 0.0288149 0)
(10.0318 0.0305855 0)
(10.0377 0.0317959 0)
(10.0435 0.0326233 0)
(10.0489 0.0332016 0)
(10.0542 0.033614 0)
(10.0593 0.0339154 0)
(10.0643 0.0341403 0)
(10.0691 0.0343005 0)
(10.074 0.0343819 0)
(10.0788 0.034346 0)
(10.0836 0.0341352 0)
(10.0884 0.0336794 0)
(10.0002 0.00352235 0)
(10.0024 0.0101472 0)
(10.0064 0.0156685 0)
(10.0117 0.0198384 0)
(10.0173 0.0229251 0)
(10.0231 0.0252248 0)
(10.0288 0.0268954 0)
(10.0345 0.0280653 0)
(10.04 0.0288738 0)
(10.0453 0.029434 0)
(10.0505 0.0298198 0)
(10.0555 0.0300762 0)
(10.0604 0.0302303 0)
(10.0652 0.0302905 0)
(10.0699 0.0302469 0)
(10.0746 0.0300722 0)
(10.0791 0.02973 0)
(10.0837 0.0291768 0)
(10.0002 0.00286838 0)
(10.002 0.00824137 0)
(10.0055 0.012826 0)
(10.0101 0.0164051 0)
(10.0152 0.0191095 0)
(10.0206 0.0211439 0)
(10.0259 0.0226447 0)
(10.0313 0.0237159 0)
(10.0366 0.0244606 0)
(10.0418 0.0249677 0)
(10.0468 0.0252984 0)
(10.0517 0.02549 0)
(10.0564 0.0255623 0)
(10.0611 0.0255228 0)
(10.0656 0.0253665 0)
(10.0701 0.0250796 0)
(10.0745 0.0246425 0)
(10.0787 0.0240326 0)
(10.0002 0.00218818 0)
(10.0017 0.00626301 0)
(10.0047 0.0098143 0)
(10.0087 0.0126657 0)
(10.0134 0.0148648 0)
(10.0183 0.0165362 0)
(10.0233 0.0177814 0)
(10.0284 0.0186795 0)
(10.0334 0.0193018 0)
(10.0383 0.0197112 0)
(10.0432 0.0199538 0)
(10.0479 0.0200594 0)
(10.0525 0.0200429 0)
(10.057 0.0199108 0)
(10.0614 0.019663 0)
(10.0656 0.0192955 0)
(10.0697 0.0188032 0)
(10.0737 0.0181744 0)
(10.0002 0.00147761 0)
(10.0015 0.00419644 0)
(10.0041 0.00661411 0)
(10.0076 0.0085985 0)
(10.0118 0.0101556 0)
(10.0163 0.0113483 0)
(10.021 0.0122388 0)
(10.0258 0.0128778 0)
(10.0306 0.0133089 0)
(10.0353 0.0135693 0)
(10.04 0.0136891 0)
(10.0445 0.0136885 0)
(10.0489 0.0135791 0)
(10.0532 0.0133655 0)
(10.0574 0.0130508 0)
(10.0614 0.0126361 0)
(10.0653 0.0121253 0)
(10.069 0.0115114 0)
(10.0001 0.00071907 0)
(10.0013 0.00198827 0)
(10.0036 0.00315047 0)
(10.0069 0.00411927 0)
(10.0107 0.00488556 0)
(10.015 0.00546948 0)
(10.0194 0.00589406 0)
(10.0239 0.00617973 0)
(10.0285 0.00634419 0)
(10.033 0.00640164 0)
(10.0374 0.00636409 0)
(10.0418 0.00624031 0)
(10.046 0.00603582 0)
(10.0501 0.00575305 0)
(10.0541 0.00539454 0)
(10.0579 0.00496314 0)
(10.0616 0.00446445 0)
(10.065 0.00389357 0)
(10.0001 -0.000132204 0)
(10.0013 -0.000484824 0)
(10.0035 -0.000753092 0)
(10.0066 -0.000969916 0)
(10.0103 -0.00114498 0)
(10.0144 -0.00129499 0)
(10.0187 -0.00143764 0)
(10.0231 -0.00158725 0)
(10.0275 -0.00175169 0)
(10.0319 -0.00193948 0)
(10.0362 -0.00215721 0)
(10.0404 -0.00241131 0)
(10.0445 -0.00270467 0)
(10.0484 -0.00304028 0)
(10.0522 -0.00341865 0)
(10.0558 -0.00384025 0)
(10.0593 -0.00430141 0)
(10.0626 -0.00480917 0)
(10.0001 -0.000950067 0)
(10.0013 -0.00285819 0)
(10.0037 -0.0045093 0)
(10.007 -0.00585991 0)
(10.0109 -0.00691747 0)
(10.0152 -0.00774269 0)
(10.0196 -0.00839864 0)
(10.024 -0.00892816 0)
(10.0285 -0.0093677 0)
(10.0329 -0.00974858 0)
(10.0371 -0.0100993 0)
(10.0413 -0.0104382 0)
(10.0453 -0.0107789 0)
(10.0491 -0.0111281 0)
(10.0528 -0.011493 0)
(10.0563 -0.0118767 0)
(10.0597 -0.0122814 0)
(10.0629 -0.0127138 0)
(10.0002 -0.00165596 0)
(10.0015 -0.00492989 0)
(10.0041 -0.00779031 0)
(10.0078 -0.0100653 0)
(10.0121 -0.0117856 0)
(10.0166 -0.0131026 0)
(10.0212 -0.0141239 0)
(10.0259 -0.0149071 0)
(10.0304 -0.0155105 0)
(10.0349 -0.0159922 0)
(10.0392 -0.0164003 0)
(10.0434 -0.0167647 0)
(10.0474 -0.0171066 0)
(10.0512 -0.0174378 0)
(10.0548 -0.0177693 0)
(10.0583 -0.0181067 0)
(10.0616 -0.0184542 0)
(10.0647 -0.0188196 0)
(10.0002 -0.00232593 0)
(10.0017 -0.00697486 0)
(10.0047 -0.0110651 0)
(10.009 -0.0141732 0)
(10.0138 -0.0164069 0)
(10.0187 -0.0180789 0)
(10.0236 -0.0193496 0)
(10.0285 -0.0202932 0)
(10.0333 -0.0209904 0)
(10.0379 -0.0215226 0)
(10.0422 -0.0219461 0)
(10.0464 -0.0223011 0)
(10.0505 -0.0226135 0)
(10.0543 -0.0229047 0)
(10.0579 -0.0231858 0)
(10.0613 -0.0234677 0)
(10.0646 -0.0237518 0)
(10.0677 -0.0240484 0)
(10.0002 -0.00295225 0)
(10.0018 -0.00904398 0)
(10.0055 -0.0143602 0)
(10.0106 -0.0182006 0)
(10.016 -0.0208949 0)
(10.0213 -0.0228679 0)
(10.0265 -0.0242752 0)
(10.0317 -0.0252443 0)
(10.0367 -0.0259314 0)
(10.0414 -0.0264462 0)
(10.0459 -0.0268446 0)
(10.0502 -0.0271629 0)
(10.0542 -0.0274309 0)
(10.058 -0.0276713 0)
(10.0617 -0.0278992 0)
(10.0651 -0.0281242 0)
(10.0683 -0.0283501 0)
(10.0714 -0.0285836 0)
(10.0001 -0.00350265 0)
(10.0018 -0.0115113 0)
(10.0063 -0.0178188 0)
(10.0123 -0.0218769 0)
(10.0184 -0.0249025 0)
(10.0242 -0.0272737 0)
(10.0299 -0.0288756 0)
(10.0354 -0.0298502 0)
(10.0405 -0.0304696 0)
(10.0454 -0.0309005 0)
(10.05 -0.0312126 0)
(10.0543 -0.0314451 0)
(10.0584 -0.0316318 0)
(10.0622 -0.031795 0)
(10.0659 -0.0319508 0)
(10.0693 -0.0321058 0)
(10.0725 -0.0322653 0)
(10.0755 -0.03243 0)
(9.99991 -0.00335194 0)
(10.0016 -0.0149541 0)
(10.0073 -0.0226796 0)
(10.0143 -0.0261576 0)
(10.0207 -0.0287087 0)
(10.027 -0.0310415 0)
(10.0333 -0.0327358 0)
(10.0393 -0.0337997 0)
(10.0448 -0.034475 0)
(10.0499 -0.0349155 0)
(10.0546 -0.0351947 0)
(10.059 -0.0353678 0)
(10.0631 -0.0354803 0)
(10.0669 -0.0355624 0)
(10.0704 -0.0356322 0)
(10.0736 -0.0357004 0)
(10.0766 -0.0357715 0)
(10.0794 -0.0358494 0)
(9.99859 -0.000364037 0)
(9.99904 -0.0157758 0)
(10.0076 -0.0273907 0)
(10.0167 -0.0324243 0)
(10.0239 -0.0347761 0)
(10.0308 -0.0361051 0)
(10.0378 -0.0368335 0)
(10.0444 -0.0372833 0)
(10.0502 -0.0376169 0)
(10.0554 -0.0378482 0)
(10.0601 -0.0379788 0)
(10.0642 -0.0380349 0)
(10.0679 -0.0380485 0)
(10.0711 -0.0380403 0)
(10.074 -0.0380247 0)
(10.0765 -0.0380111 0)
(10.0787 -0.0380019 0)
(10.0806 -0.0380004 0)
(9.99488 0.00142504 0)
(9.99288 -0.00810724 0)
(10.0061 -0.0202957 0)
(10.0203 -0.0322098 0)
(10.0308 -0.0404025 0)
(10.0394 -0.0440602 0)
(10.0469 -0.044955 0)
(10.0532 -0.0447964 0)
(10.0581 -0.0443187 0)
(10.0621 -0.0437128 0)
(10.0651 -0.0430579 0)
(10.0674 -0.0424124 0)
(10.0689 -0.0418121 0)
(10.0698 -0.0412651 0)
(10.0702 -0.0407802 0)
(10.0702 -0.0403553 0)
(10.0698 -0.039988 0)
(10.0691 -0.0396527 0)
(9.9947 -0.0305704 0)
(9.99947 -0.0228339 0)
(10.0147 -0.00260051 0)
(10.0305 -0.00186555 0)
(10.0435 -0.0116044 0)
(10.0534 -0.02086 0)
(10.0596 -0.0272077 0)
(10.0621 -0.0314237 0)
(10.0618 -0.0341885 0)
(10.0595 -0.0358762 0)
(10.0555 -0.0367999 0)
(10.0503 -0.0372282 0)
(10.0441 -0.0373502 0)
(10.0371 -0.0372844 0)
(10.0297 -0.0371212 0)
(10.0218 -0.0369176 0)
(10.0137 -0.0367387 0)
(10.0055 -0.0365534 0)
(10.0274 -0.18308 0)
(10.0766 -0.28833 0)
(10.0871 -0.247817 0)
(10.0777 -0.186546 0)
(10.0664 -0.140293 0)
(10.0538 -0.108201 0)
(10.0366 -0.085848 0)
(10.0147 -0.0703813 0)
(9.98961 -0.0596027 0)
(9.96265 -0.0518185 0)
(9.93475 -0.0459893 0)
(9.90651 -0.0414897 0)
(9.87841 -0.0379337 0)
(9.8508 -0.0350581 0)
(9.82389 -0.0326917 0)
(9.7978 -0.0307708 0)
(9.77279 -0.0292546 0)
(9.74885 -0.0284394 0)
(9.93575 0.689654 0)
(9.86823 0.609628 0)
(9.76463 0.380634 0)
(9.62672 0.217435 0)
(9.48606 0.119268 0)
(9.35746 0.0631911 0)
(9.24305 0.0315811 0)
(9.1416 0.0136287 0)
(9.05205 0.00327956 0)
(8.97321 -0.00277563 0)
(8.90344 -0.00632569 0)
(8.8414 -0.00844341 0)
(8.78583 -0.00969398 0)
(8.73585 -0.0104427 0)
(8.69055 -0.0109416 0)
(8.64931 -0.0112092 0)
(8.61123 -0.0114163 0)
(8.57596 -0.0120723 0)
(0.0115349 -0.0167648 -5.75449e-19)
(0.0319565 -0.0263379 2.72962e-19)
(0.0493101 -0.025829 0)
(0.0659526 -0.0202191 0)
(0.0775309 -0.0122464 0)
(0.0828718 -0.00353851 -1.08026e-19)
(0.0824695 0.00479483 0)
(0.0767697 0.0120392 0)
(0.0664729 0.0178595 0)
(0.0523195 0.0221274 0)
(0.0352353 0.024828 7.7408e-20)
(0.0160939 0.0263904 0)
(-0.0047189 0.0274076 0)
(-0.027236 0.028293 0)
(-0.051312 0.0290947 0)
(-0.0778834 0.0295763 5.9541e-20)
(-0.105377 0.0340919 0)
(-0.132879 0.0457248 0)
(-0.163143 0.0661671 0)
(-0.198233 0.0904814 0)
(-0.244816 0.0797979 0)
(-0.301422 0.0390677 0)
(-0.338032 0.0441996 0)
(-0.386682 0.0513624 1.1203e-19)
(-0.441126 0.0555661 -1.02513e-19)
(-0.498365 0.0584938 9.43406e-20)
(-0.558142 0.0606746 8.72464e-20)
(-0.619678 0.0621826 0)
(-0.682444 0.0630751 0)
(-0.745867 0.0634093 -7.10333e-20)
(-0.809434 0.0632203 -6.6933e-20)
(-0.872673 0.0625716 0)
(-0.935185 0.0615083 0)
(-0.996629 0.0601055 -5.74114e-20)
(-1.05674 0.0584185 0)
(-1.11529 0.0565262 0)
(-1.17214 0.0544798 5.08287e-20)
(-1.22718 0.0523501 0)
(-1.28038 0.050175 4.75263e-20)
(-1.33172 0.0480096 9.22291e-20)
(-1.38123 0.0458753 0)
(-1.42896 0.0438106 0)
(-1.47498 0.04182 0)
(-1.51938 0.0399282 0)
(-1.56223 0.038129 0)
(-1.60364 0.0364389 7.96287e-20)
(-1.64369 0.0348449 7.80176e-20)
(-1.68249 0.0333581 7.64995e-20)
(-1.72011 0.0319624 0)
(-1.75665 0.0306665 -7.36908e-20)
(-1.7922 0.0294504 0)
(-1.82682 0.0283227 7.11207e-20)
(-1.86061 0.0272662 6.99051e-20)
(-1.89363 0.0262889 0)
(-1.92595 0.025373 0)
(-1.95764 0.0245285 0)
(-1.98876 0.0237414 6.53686e-20)
(-2.01936 0.0230211 0)
(-2.0495 0.0223524 0)
(-2.07924 0.021747 0)
(-2.10862 0.0211932 0)
(-2.1377 0.0207017 0)
(-2.16652 0.0202601 0)
(-2.19515 0.0198781 0)
(-2.22361 0.0195447 0)
(-2.25197 0.0192697 -5.60904e-20)
(-2.28027 0.0190447 0)
(-2.30856 0.0188777 0)
(-2.33687 0.0187621 5.31091e-20)
(-2.36528 0.0187036 5.21223e-20)
(-2.39381 0.0186978 0)
(-2.42253 0.0187469 -5.01616e-20)
(-2.45148 0.0188481 4.91884e-20)
(-2.48071 0.019 0)
(-2.51027 0.019204 -4.7257e-20)
(-2.54021 0.0194589 0)
(-2.57055 0.0197726 0)
(-2.60134 0.0201434 4.44128e-20)
(-2.63259 0.0205745 0)
(-2.66435 0.0210564 -4.25666e-20)
(-2.69661 0.0215961 0)
(-2.72939 0.0221768 4.07775e-20)
(-2.76268 0.0227929 3.99102e-20)
(-2.79648 0.0234068 3.90638e-20)
(-2.83078 0.0239985 7.64833e-20)
(-2.86553 0.0244797 -7.4894e-20)
(-2.90061 0.0247047 0)
(-2.93571 0.0239296 0)
(-2.97056 0.0249666 0)
(-3.00573 0.0267508 -6.90329e-20)
(-3.04109 0.0264698 -6.773e-20)
(-3.07634 0.0262709 6.64911e-20)
(-3.11127 0.0263012 0)
(-3.14581 0.0258639 -6.42396e-20)
(-3.1797 0.0253838 -6.31963e-20)
(-3.21273 0.0245805 -6.22182e-20)
(-3.2446 0.023241 0)
(-3.2749 0.0218665 0)
(-3.30321 0.0194697 0)
(-3.3289 0.0175136 -5.89009e-20)
(-3.35212 0.01798 0)
(-3.37279 0.0163059 0)
(-3.38981 0.0140057 5.7198e-20)
(-3.40285 0.0120178 0)
(-3.41114 0.00937811 0)
(-3.41496 0.00737251 5.58595e-20)
(-3.41455 0.00533986 0)
(-3.40968 0.0033266 0)
(-3.39998 0.000885594 -5.40944e-20)
(-3.38551 -9.85582e-05 -5.33802e-20)
(-3.36629 -0.00236839 0)
(-3.34128 -0.00602119 5.16755e-20)
(-3.31062 -0.00782566 0)
(-3.2745 -0.0100243 -4.93615e-20)
(-3.23233 -0.013169 0)
(-3.18394 -0.0168733 -4.60871e-20)
(-3.12904 -0.0207519 -4.39573e-20)
(-3.06761 -0.0243318 0)
(-2.99982 -0.0278997 0)
(-2.92569 -0.0316374 0)
(-2.84523 -0.0357511 0)
(-2.75853 -0.0399088 0)
(-2.66568 -0.0441512 0)
(-2.56682 -0.0484095 0)
(-2.46215 -0.0526315 -6.89644e-21)
(-2.35197 -0.0567912 -1.31799e-21)
(-2.23662 -0.0608289 0)
(-2.11652 -0.0647183 0)
(-1.99212 -0.0684103 0)
(-1.86391 -0.0718823 0)
(-1.7324 -0.0751037 -1.20913e-19)
(-1.59812 -0.0780609 0)
(-1.4616 -0.0807293 1.89595e-19)
(-1.32342 -0.0831179 -2.29869e-19)
(-1.18409 -0.0852667 0)
(-1.04411 -0.087168 0)
(-0.903962 -0.08886 0)
(-0.764113 -0.0903719 4.44727e-19)
(-0.624981 -0.0917219 5.16761e-19)
(-0.487053 -0.0928633 0)
(-0.350357 -0.0938198 6.94699e-19)
(-0.215958 -0.0948445 8.07691e-19)
(-0.0813889 -0.0945016 -8.7372e-19)
(0.0558713 -0.0913558 0)
(0.190813 -0.0867284 0)
(0.321816 -0.0818453 -7.75151e-19)
(0.448474 -0.0770712 0)
(0.5704 -0.0724866 0)
(0.687471 -0.0681241 0)
(0.79963 -0.0639631 0)
(0.906944 -0.0600325 6.68305e-19)
(1.00948 -0.0563476 6.53973e-19)
(1.10733 -0.0528449 0)
(1.20066 -0.0495394 6.29371e-19)
(1.2896 -0.0464525 0)
(1.37435 -0.0435563 0)
(1.45506 -0.040838 5.99509e-19)
(1.53187 -0.0382838 0)
(1.60496 -0.0358876 5.83311e-19)
(1.67447 -0.0336346 0)
(1.74059 -0.0315277 0)
(1.80348 -0.0295566 5.62979e-19)
(1.86328 -0.0277089 0)
(1.92012 -0.0259731 5.51587e-19)
(1.97413 -0.0243406 0)
(2.02545 -0.0228054 0)
(2.07417 -0.0213626 0)
(2.1204 -0.0199919 -5.3289e-19)
(2.16419 -0.0186889 0)
(2.20562 -0.0174399 5.25345e-19)
(2.24468 -0.0162276 0)
(2.28132 -0.0150252 0)
(2.31539 -0.0137937 0)
(2.34659 -0.0124746 0)
(2.37446 -0.0109696 0)
(2.39741 -0.0090987 0)
(2.41522 -0.00594176 0)
(2.41494 5.75656e-05 -1.03483e-18)
(2.40131 0.0133214 0)
(2.28192 0.0314742 0)
(0.0120641 -0.0662367 1.2691e-18)
(0.0298278 -0.066817 -5.02413e-19)
(0.0375784 -0.0529072 0)
(0.0425203 -0.0370289 1.46202e-19)
(0.0434545 -0.0206957 0)
(0.0404125 -0.00468699 5.53532e-20)
(0.0338051 0.0103004 -1.02926e-19)
(0.0237585 0.0237564 -9.80311e-20)
(0.0101535 0.0353622 0)
(-0.00696051 0.0450081 -9.2684e-20)
(-0.0274994 0.0527962 -4.50094e-20)
(-0.0514064 0.0591389 0)
(-0.0787073 0.0646402 0)
(-0.109458 0.0698497 0)
(-0.143758 0.0750855 0)
(-0.182002 0.080317 -3.99286e-20)
(-0.224184 0.0855471 0)
(-0.270879 0.0928962 7.63149e-20)
(-0.321013 0.104569 0)
(-0.372042 0.119189 0)
(-0.428523 0.13109 -8.36346e-20)
(-0.490746 0.137355 0)
(-0.554561 0.144345 7.7478e-20)
(-0.617238 0.151032 -3.71295e-20)
(-0.679743 0.156275 3.54164e-20)
(-0.742069 0.15985 -3.38297e-20)
(-0.803993 0.162021 -3.23645e-20)
(-0.865301 0.162844 0)
(-0.925688 0.162371 0)
(-0.984868 0.160716 2.86315e-20)
(-1.04261 0.15802 -2.73373e-20)
(-1.09876 0.154461 0)
(-1.15318 0.150206 0)
(-1.20582 0.145435 2.49607e-20)
(-1.25665 0.140299 0)
(-1.30567 0.134952 0)
(-1.35293 0.129508 -2.29436e-20)
(-1.39848 0.124082 0)
(-1.44239 0.118752 2.16561e-20)
(-1.48473 0.113589 -4.27478e-20)
(-1.52559 0.10863 0)
(-1.56507 0.103918 0)
(-1.60325 0.0994594 -8.0123e-20)
(-1.64021 0.0952738 -7.86688e-20)
(-1.67605 0.0913524 -7.72984e-20)
(-1.71085 0.0876998 3.78379e-20)
(-1.74469 0.0842978 -3.75416e-20)
(-1.77764 0.0811452 -1.10539e-19)
(-1.80977 0.0782197 7.2464e-20)
(-1.84116 0.0755178 3.58309e-20)
(-1.87186 0.0730153 0)
(-1.90193 0.0707079 -3.47877e-20)
(-1.93143 0.0685732 3.40347e-20)
(-1.96043 0.0666089 0)
(-1.98896 0.0647939 0)
(-2.01708 0.0631285 0)
(-2.04483 0.0615949 -3.23851e-20)
(-2.07227 0.0601958 0)
(-2.09942 0.0589143 6.27437e-20)
(-2.12634 0.0577539 0)
(-2.15306 0.0567001 6.0956e-20)
(-2.17963 0.0557581 0)
(-2.20609 0.0549153 -5.91776e-20)
(-2.23246 0.0541769 0)
(-2.25881 0.0535318 5.74053e-20)
(-2.28515 0.0529846 -2.81784e-20)
(-2.31153 0.0525262 0)
(-2.33799 0.0521601 -5.47542e-20)
(-2.36455 0.0518784 -2.70177e-20)
(-2.39126 0.0516816 -2.65784e-20)
(-2.41814 0.0515633 0)
(-2.44522 0.0515207 -2.55314e-20)
(-2.47254 0.0515475 -2.52697e-20)
(-2.50011 0.051635 0)
(-2.52796 0.0517758 2.44077e-20)
(-2.55611 0.0519587 -4.77634e-20)
(-2.58456 0.0521815 0)
(-2.61332 0.0524318 -2.31376e-20)
(-2.64238 0.052703 0)
(-2.67174 0.052974 6.66987e-20)
(-2.70137 0.0532436 0)
(-2.73124 0.0534906 -6.42678e-20)
(-2.7613 0.0537094 -2.11193e-20)
(-2.79151 0.0538645 2.04493e-20)
(-2.82178 0.053952 4.01246e-20)
(-2.85202 0.0539366 -3.93703e-20)
(-2.88214 0.0538174 0)
(-2.91219 0.0535538 0)
(-2.94194 0.0531329 0)
(-2.97106 0.0525855 1.11453e-19)
(-2.99961 0.0518577 3.68591e-20)
(-3.02752 0.0508611 -3.63415e-20)
(-3.05457 0.0495785 0)
(-3.08054 0.0480057 -3.45663e-20)
(-3.10516 0.0461085 3.49595e-20)
(-3.12825 0.0438839 3.45412e-20)
(-3.14955 0.0412607 0)
(-3.16885 0.038213 0)
(-3.1861 0.0347476 0)
(-3.20126 0.0308394 3.30843e-20)
(-3.21389 0.0264885 0)
(-3.22387 0.0218119 -6.46954e-20)
(-3.23131 0.0167529 -9.6724e-20)
(-3.23607 0.0113511 6.39785e-20)
(-3.23824 0.00583404 0)
(-3.23727 0.000262866 3.12426e-20)
(-3.23234 -0.00542203 0)
(-3.22306 -0.0113355 6.20968e-20)
(-3.20925 -0.0174361 -3.04623e-20)
(-3.19048 -0.0237978 -3.01462e-20)
(-3.16627 -0.0303121 0)
(-3.13693 -0.0370611 -8.87997e-20)
(-3.10203 -0.0440395 5.80188e-20)
(-3.06093 -0.0511001 2.85617e-20)
(-3.0137 -0.0582184 0)
(-2.96032 -0.0655225 2.68153e-20)
(-2.90064 -0.0727751 7.72151e-20)
(-2.83446 -0.0799452 0)
(-2.76171 -0.0870195 4.60533e-20)
(-2.68237 -0.0940501 4.25881e-20)
(-2.59656 -0.100972 3.86194e-20)
(-2.50434 -0.107685 0)
(-2.40584 -0.114121 0)
(-2.30119 -0.120236 0)
(-2.19063 -0.125945 -9.08407e-21)
(-2.07445 -0.131223 -3.6912e-21)
(-1.95305 -0.136009 0)
(-1.82684 -0.140285 7.58137e-21)
(-1.69632 -0.144004 1.71679e-20)
(-1.56199 -0.147152 0)
(-1.42441 -0.149703 4.16732e-20)
(-1.28414 -0.151653 1.01283e-19)
(-1.14176 -0.153015 -6.66694e-20)
(-0.997851 -0.153816 -7.33211e-20)
(-0.852976 -0.154087 0)
(-0.707683 -0.153871 0)
(-0.562485 -0.15323 0)
(-0.417847 -0.152214 -1.41791e-19)
(-0.274204 -0.150912 1.50694e-19)
(-0.131594 -0.149484 3.41407e-19)
(0.0103111 -0.148151 -1.85844e-19)
(0.150458 -0.147023 1.85666e-19)
(0.286758 -0.144918 2.00357e-19)
(0.418232 -0.140804 0)
(0.54513 -0.135311 0)
(0.66812 -0.129269 -2.14013e-19)
(0.787268 -0.123055 0)
(0.902425 -0.116855 0)
(1.01348 -0.11076 4.67288e-19)
(1.12035 -0.104832 0)
(1.22304 -0.0991 2.40264e-19)
(1.32156 -0.0936038 -2.48779e-19)
(1.41597 -0.0883425 0)
(1.50634 -0.0833161 2.51493e-19)
(1.59279 -0.0785448 0)
(1.67539 -0.0740321 0)
(1.75426 -0.0697491 -2.62964e-19)
(1.82953 -0.0656899 5.27126e-19)
(1.90136 -0.0618534 -2.66974e-19)
(1.96987 -0.0582361 0)
(2.0352 -0.0548338 0)
(2.09748 -0.0516274 2.69382e-19)
(2.15684 -0.0485973 0)
(2.21341 -0.0457363 2.72187e-19)
(2.26731 -0.0430354 0)
(2.31864 -0.0404792 0)
(2.3675 -0.0380539 0)
(2.41398 -0.0357425 2.78085e-19)
(2.45816 -0.0335273 0)
(2.50006 -0.0313792 -2.79658e-19)
(2.53971 -0.029258 0)
(2.57705 -0.027112 0)
(2.61196 -0.0248561 5.62872e-19)
(2.64417 -0.0223659 -5.64735e-19)
(2.67325 -0.0193818 0)
(2.69825 -0.0154894 0)
(2.71815 -0.00925782 0)
(2.73085 0.00159548 1.74089e-18)
(2.74307 0.0234151 0)
(2.72734 0.0624696 -1.20276e-18)
(0.00444568 -0.098363 -8.14778e-22)
(0.0125878 -0.082048 5.09438e-19)
(0.011207 -0.0566959 0)
(0.00750778 -0.0322848 -2.195e-19)
(0.000646077 -0.00896466 0)
(-0.00919524 0.0132603 0)
(-0.0217977 0.0342301 -5.13739e-23)
(-0.0371878 0.0538047 6.92231e-20)
(-0.0555472 0.0718459 6.62735e-20)
(-0.0770993 0.0882751 6.4084e-20)
(-0.102067 0.103134 0)
(-0.130647 0.116667 0)
(-0.162982 0.129321 -5.97837e-20)
(-0.19911 0.141628 -1.16924e-19)
(-0.23896 0.154039 1.14135e-19)
(-0.28238 0.166914 0)
(-0.329112 0.180504 1.07979e-19)
(-0.378535 0.195018 -5.26393e-20)
(-0.429521 0.210146 0)
(-0.480965 0.224407 9.93463e-20)
(-0.533337 0.235437 4.84886e-20)
(-0.587171 0.242919 -9.33886e-20)
(-0.642215 0.249411 -4.51658e-20)
(-0.697374 0.254673 0)
(-0.752023 0.258237 8.34598e-20)
(-0.805934 0.259963 8.04253e-20)
(-0.85897 0.259857 0)
(-0.910988 0.258006 7.47984e-20)
(-0.961855 0.254564 0)
(-1.01149 0.249733 6.98142e-20)
(-1.05986 0.243741 3.38967e-20)
(-1.10692 0.236831 0)
(-1.15267 0.229236 0)
(-1.19711 0.221176 0)
(-1.24027 0.212846 0)
(-1.28217 0.204417 0)
(-1.32285 0.196028 0)
(-1.36234 0.187796 5.60213e-20)
(-1.40068 0.179809 -8.23235e-20)
(-1.43791 0.172135 0)
(-1.47408 0.164817 0)
(-1.50924 0.157885 0)
(-1.54343 0.15135 1.86871e-22)
(-1.5767 0.145219 5.00435e-20)
(-1.60909 0.139484 9.82464e-20)
(-1.64066 0.134136 -9.66705e-20)
(-1.67146 0.129159 -4.74985e-20)
(-1.70153 0.124536 4.69465e-20)
(-1.73092 0.120248 -1.61088e-22)
(-1.75968 0.116276 4.54259e-20)
(-1.78784 0.1126 0)
(-1.81546 0.109201 4.41557e-20)
(-1.84257 0.10606 -1.42855e-22)
(-1.86923 0.103163 0)
(-1.89547 0.100493 0)
(-1.92132 0.0980379 -4.17861e-20)
(-1.94684 0.0957838 0)
(-1.97205 0.0937223 0)
(-1.99699 0.0918421 3.99765e-20)
(-2.02169 0.0901362 7.90833e-20)
(-2.0462 0.0885957 -3.91038e-20)
(-2.07054 0.0872159 0)
(-2.09474 0.0859892 3.79998e-20)
(-2.11885 0.0849118 0)
(-2.1429 0.0839771 3.66853e-20)
(-2.16691 0.0831813 3.63517e-20)
(-2.19092 0.0825187 -7.13926e-20)
(-2.21496 0.0819849 -3.50398e-20)
(-2.23905 0.081574 0)
(-2.26323 0.0812797 6.81033e-20)
(-2.28752 0.081095 0)
(-2.31195 0.0810113 9.89921e-20)
(-2.33654 0.08102 6.48259e-20)
(-2.36131 0.0811078 6.37401e-20)
(-2.38628 0.0812637 -6.26594e-20)
(-2.41147 0.0814722 9.25154e-20)
(-2.43688 0.0817228 0)
(-2.46251 0.0819963 0)
(-2.48836 0.0822758 -5.84139e-20)
(-2.51442 0.0825356 -8.62273e-20)
(-2.54067 0.0827584 0)
(-2.56709 0.0829143 2.78461e-20)
(-2.59364 0.0829793 0)
(-2.62029 0.0829139 -8.0279e-20)
(-2.64697 0.0826905 -3.80163e-22)
(-2.67363 0.0822631 3.96642e-22)
(-2.70021 0.081603 5.066e-20)
(-2.72666 0.0806812 0)
(-2.75279 0.0796142 -4.90171e-20)
(-2.77838 0.0783774 -4.64437e-22)
(-2.80342 0.0767447 0)
(-2.82787 0.0746831 0)
(-2.85157 0.0722275 0)
(-2.87435 0.0693268 4.62495e-20)
(-2.89602 0.0659596 0)
(-2.91642 0.0620867 0)
(-2.9354 0.0576475 0)
(-2.95278 0.0526662 0)
(-2.96842 0.04714 0)
(-2.98216 0.0411609 4.31187e-20)
(-2.99365 0.0348515 0)
(-3.00268 0.0280308 4.30181e-20)
(-3.00916 0.0206354 4.2765e-20)
(-3.01279 0.0127787 -4.25266e-20)
(-3.01333 0.00447346 0)
(-3.01028 -0.00424572 -4.18929e-20)
(-3.00334 -0.0133905 0)
(-2.99214 -0.0229423 -4.11504e-20)
(-2.97646 -0.0328784 4.07019e-20)
(-2.9559 -0.0431241 1.20158e-19)
(-2.93015 -0.0537303 0)
(-2.89917 -0.0647268 1.16535e-19)
(-2.86256 -0.0759635 3.80034e-20)
(-2.81996 -0.0873714 0)
(-2.77136 -0.0989415 7.24488e-20)
(-2.7166 -0.110685 6.99859e-20)
(-2.65554 -0.122454 -1.00538e-19)
(-2.58807 -0.134072 0)
(-2.51403 -0.145514 -2.96277e-20)
(-2.43347 -0.156743 -2.72965e-20)
(-2.34644 -0.167732 -7.50923e-20)
(-2.25303 -0.178339 0)
(-2.15338 -0.188449 0)
(-2.04766 -0.197952 0)
(-1.93611 -0.206746 -1.25024e-20)
(-1.81906 -0.214753 0)
(-1.6969 -0.221896 0)
(-1.57009 -0.22812 -4.65312e-21)
(-1.43912 -0.233369 -1.04666e-20)
(-1.30452 -0.23761 0)
(-1.16687 -0.240818 0)
(-1.02675 -0.242991 -6.04009e-20)
(-0.884741 -0.244142 0)
(-0.741444 -0.244317 9.01238e-20)
(-0.59743 -0.24357 1.0146e-19)
(-0.453248 -0.241972 0)
(-0.309401 -0.239621 0)
(-0.16634 -0.236655 -1.50723e-19)
(-0.0242184 -0.233274 -4.86461e-21)
(0.116303 -0.229444 -4.79736e-21)
(0.254271 -0.224927 0)
(0.38911 -0.219717 -4.03934e-19)
(0.520227 -0.213914 0)
(0.647246 -0.207376 0)
(0.770212 -0.200032 0)
(0.889286 -0.192136 2.43886e-19)
(1.00446 -0.183949 0)
(1.11566 -0.175656 -5.15577e-19)
(1.22281 -0.167381 -2.69295e-19)
(1.32589 -0.159214 0)
(1.4249 -0.151218 -2.83983e-19)
(1.51988 -0.143452 0)
(1.61086 -0.135943 0)
(1.69795 -0.128703 -9.03306e-19)
(1.78122 -0.121756 6.11538e-19)
(1.86078 -0.115124 0)
(1.93674 -0.108802 6.31315e-19)
(2.00927 -0.102786 -3.2207e-19)
(2.07848 -0.0970693 0)
(2.14451 -0.0916483 0)
(2.2075 -0.0865185 0)
(2.26755 -0.0816606 -1.00681e-18)
(2.32481 -0.0770568 0)
(2.3794 -0.072694 -3.42554e-19)
(2.43143 -0.0685601 0)
(2.481 -0.0646349 0)
(2.52822 -0.0608979 0)
(2.57316 -0.0573294 0)
(2.61591 -0.0538989 0)
(2.65651 -0.0505615 0)
(2.69496 -0.0472608 -7.15185e-19)
(2.73123 -0.043913 0)
(2.76523 -0.0403959 -3.62222e-19)
(2.79673 -0.0365158 1.09117e-18)
(2.82539 -0.0319224 0)
(2.85056 -0.0260051 0)
(2.8716 -0.0174733 -7.42806e-19)
(2.88658 -0.0041107 -7.52626e-19)
(2.89996 0.0197706 7.56394e-19)
(2.90137 0.0637139 7.78721e-19)
(-0.0055483 -0.104412 -1.6509e-18)
(-0.00679769 -0.074496 -6.20481e-19)
(-0.0157544 -0.0430314 -2.40023e-19)
(-0.0267708 -0.0131425 -8.79771e-20)
(-0.0400358 0.0152456 0)
(-0.0554583 0.0423923 1.26262e-19)
(-0.073048 0.0683866 -5.75483e-20)
(-0.0929153 0.0932153 0)
(-0.115247 0.116827 -5.13279e-20)
(-0.140248 0.139171 0)
(-0.16811 0.160244 9.63739e-20)
(-0.198997 0.180146 0)
(-0.232987 0.199095 4.5861e-20)
(-0.270009 0.217357 8.9501e-20)
(-0.309828 0.23515 -8.71612e-20)
(-0.352061 0.252572 0)
(-0.39622 0.269561 -8.19923e-20)
(-0.441754 0.28595 0)
(-0.488045 0.301345 0)
(-0.534626 0.315005 -7.38158e-20)
(-0.581407 0.326092 0)
(-0.628474 0.334365 8.3361e-24)
(-0.675741 0.340368 0)
(-0.722843 0.344238 0)
(-0.769445 0.345936 -5.51853e-23)
(-0.81534 0.345485 -5.97063e-20)
(-0.860409 0.342989 -5.76341e-20)
(-0.904588 0.338622 -5.57944e-20)
(-0.947848 0.332617 0)
(-0.990172 0.325236 -1.04707e-19)
(-1.03156 0.316742 0)
(-1.07201 0.307391 -4.93617e-20)
(-1.11153 0.297424 0)
(-1.15014 0.287063 0)
(-1.18783 0.276502 4.56303e-20)
(-1.22462 0.265908 0)
(-1.26052 0.255423 -4.35419e-20)
(-1.29555 0.245162 -7.19685e-23)
(-1.32971 0.235213 8.3526e-20)
(-1.36302 0.225643 -8.18123e-20)
(-1.39551 0.216498 0)
(-1.42719 0.207807 0)
(-1.45808 0.199586 -3.86554e-20)
(-1.48821 0.191841 0)
(-1.51761 0.184567 -3.75353e-20)
(-1.5463 0.177755 3.69478e-20)
(-1.57433 0.171389 3.63856e-20)
(-1.60172 0.165452 0)
(-1.6285 0.159923 -3.53258e-20)
(-1.65471 0.154782 -3.48229e-20)
(-1.68038 0.150008 6.85443e-20)
(-1.70555 0.145579 -3.386e-20)
(-1.73025 0.141476 -3.33961e-20)
(-1.75451 0.137679 0)
(-1.77837 0.134171 0)
(-1.80186 0.130937 3.20555e-20)
(-1.82502 0.127961 0)
(-1.84786 0.125232 0)
(-1.87044 0.122738 -6.1529e-20)
(-1.89276 0.120469 -6.06808e-20)
(-1.91488 0.118414 0)
(-1.93681 0.116567 0)
(-1.95858 0.11492 0)
(-1.98024 0.113465 0)
(-2.0018 0.112197 -5.64749e-20)
(-2.02329 0.111107 5.55129e-20)
(-2.04475 0.11019 5.47956e-20)