/*--------------------------------*- C++ -*----------------------------------*\
  =========                 |
  \\      /  F ield         | OpenFOAM: The Open Source CFD Toolbox
   \\    /   O peration     | Website:  https://openfoam.org
    \\  /    A nd           | Version:  12
     \\/     M anipulation  |
\*---------------------------------------------------------------------------*/
FoamFile
{
    format      ascii;
    class       volScalarField;
    location    "2";
    object      epsilon;
}
// * * * * * * * * * * * * * * * * * * * * * * * * * * * * * * * * * * * * * //

dimensions      [0 2 -3 0 0 0 0];

internalField   nonuniform List<scalar> 
1600
(
1.31094e-05
5.88728e-05
0.000113165
0.000165343
0.000215431
0.000264804
0.000312791
0.000357933
0.000399839
0.000441056
0.000486662
0.000542843
0.000616854
0.000721131
0.00086912
0.00107478
0.00134725
0.00168183
0.00205693
0.00244499
0.00282866
0.00320791
0.00359227
0.00399971
0.00446171
0.00503743
0.00557889
0.0060071
0.00623431
0.00631864
0.00609797
0.00548756
0.00444023
0.00309943
0.00190999
0.000975802
0.000435422
0.000192972
7.64983e-05
1.72549e-05
6.3922e-05
5.94209e-05
9.05214e-05
0.000129689
0.000172658
0.000219564
0.00027206
0.000332767
0.000405818
0.000496998
0.000619429
0.000790404
0.00103196
0.00134749
0.00172416
0.00212854
0.00251653
0.00285007
0.00310971
0.00331204
0.00348202
0.00364058
0.003805
0.00398694
0.0041871
0.00439346
0.00461929
0.00482315
0.00497759
0.00504185
0.00499238
0.00469635
0.00410889
0.00318567
0.00206005
0.00106557
0.000453876
0.000197912
8.57844e-05
6.78844e-05
0.000156771
0.000104774
0.000133876
0.000181493
0.000238325
0.000303016
0.000378018
0.00046906
0.000586608
0.000747721
0.000969314
0.00125999
0.00160303
0.00196389
0.00229607
0.00256501
0.00275639
0.00289306
0.00301056
0.00309118
0.00313671
0.0031942
0.00327351
0.00338417
0.00353266
0.00372259
0.00394187
0.00418375
0.00443338
0.0046612
0.00477832
0.00480582
0.00458001
0.00415597
0.00325074
0.00189194
0.000752653
0.000266023
0.000114378
0.000120899
0.000284876
0.000165651
0.000194515
0.000252992
0.000325632
0.000410289
0.000510554
0.000635103
0.000798093
0.0010157
0.0012948
0.00162013
0.00195199
0.00224248
0.00245683
0.0025908
0.00267544
0.00270132
0.00269296
0.00267143
0.00266617
0.00268463
0.00273144
0.00280583
0.00290603
0.00303059
0.00318051
0.00335724
0.00356163
0.00379568
0.00405615
0.00430399
0.00442334
0.00441962
0.00409345
0.00321745
0.00143234
0.0004286
0.00014691
0.000135387
0.000437192
0.000235503
0.000261457
0.000329835
0.000417531
0.000521883
0.000647752
0.000805653
0.00100967
0.00126871
0.00157229
0.00188429
0.00215616
0.00234965
0.00244157
0.00247674
0.00245723
0.00238202
0.0023232
0.00229001
0.00227868
0.00228837
0.00233419
0.00239994
0.00249153
0.00260408
0.0027364
0.00288858
0.00305991
0.00325012
0.0034596
0.00368063
0.00392138
0.00417551
0.00428641
0.00408304
0.00289238
0.000841988
0.000207386
0.000128532
0.000601898
0.00031004
0.000330405
0.0004072
0.0005085
0.000631271
0.000781488
0.000969922
0.00120692
0.00149002
0.00179213
0.00206728
0.00225189
0.00232535
0.002341
0.00227436
0.0021773
0.00208731
0.00203593
0.00201649
0.00201556
0.00205363
0.00211818
0.00220149
0.00230463
0.00242415
0.0025613
0.002717
0.00289173
0.00308339
0.00329046
0.00349837
0.00370564
0.00391858
0.00414165
0.00426032
0.00401194
0.00181922
0.000353378
0.000125348
0.000766997
0.000384878
0.000397381
0.000480806
0.000593854
0.000733042
0.000904932
0.00111892
0.00137919
0.00167148
0.00195726
0.0021631
0.00223987
0.00225093
0.0021732
0.00205224
0.00193634
0.00186728
0.00183996
0.00183597
0.00186696
0.0019296
0.00200869
0.00210367
0.0022141
0.00234039
0.00248507
0.00265089
0.00283974
0.00305138
0.00327602
0.00349293
0.00369477
0.00388493
0.00407129
0.00423668
0.00429695
0.00345695
0.000763253
0.000169109
0.00092204
0.000455692
0.000458773
0.000546801
0.000669396
0.000822351
0.00101208
0.0012454
0.00151945
0.00180907
0.00206112
0.00217242
0.00219473
0.00212963
0.00199725
0.0018551
0.00175717
0.00171492
0.00170384
0.0017184
0.00176913
0.00183534
0.00191372
0.00200583
0.00211361
0.00224114
0.0023937
0.00257664
0.00279374
0.00304484
0.00332305
0.00363378
0.0038989
0.00409898
0.00422607
0.00433918
0.00439874
0.00418972
0.00159774
0.000321326
0.00105862
0.000518256
0.000511895
0.000602075
0.000731667
0.000895171
0.00109812
0.00134416
0.00162418
0.00190574
0.00209222
0.00214624
0.00211829
0.00199848
0.00183831
0.00169916
0.00162744
0.00160079
0.00159729
0.0016223
0.00166998
0.00172494
0.00178988
0.00186799
0.00196401
0.00208458
0.00223741
0.00243088
0.00267295
0.00296844
0.00331372
0.00369104
0.00410229
0.00442137
0.00458696
0.00465088
0.00466298
0.00445473
0.00307397
0.000773007
0.00117057
0.000570651
0.000554485
0.000644471
0.000778289
0.000948757
0.00115998
0.00141232
0.00169039
0.00195154
0.00208072
0.00210152
0.00202994
0.00187548
0.00170532
0.0015809
0.00152405
0.00150385
0.00150172
0.00152221
0.00155508
0.00159162
0.00163713
0.0016965
0.00177634
0.00188466
0.00203073
0.00222532
0.00248032
0.0028072
0.00321221
0.0036869
0.00419653
0.00469604
0.00498679
0.00509699
0.0051138
0.00496779
0.00431169
0.00181875
0.0012544
0.000611729
0.000585461
0.000672972
0.000808062
0.000981737
0.00119633
0.00144866
0.00171862
0.00195502
0.00205098
0.00204708
0.00194212
0.00176923
0.00159931
0.00148684
0.00143506
0.00141437
0.00140926
0.00141575
0.0014302
0.00144691
0.0014724
0.0015127
0.00157528
0.00166873
0.00180313
0.00199087
0.00224697
0.00258865
0.00303203
0.00358332
0.00422229
0.00490458
0.00539572
0.00558067
0.00559386
0.00534573
0.00484366
0.00301478
0.00130879
0.000641363
0.000604761
0.000687115
0.000819165
0.000990748
0.0012022
0.00144918
0.00171405
0.00193306
0.00200462
0.00198616
0.00186271
0.0016827
0.00151695
0.00140917
0.00135616
0.00132998
0.00131697
0.00131043
0.00130712
0.00130611
0.00131403
0.00133709
0.00138334
0.00146133
0.00158146
0.00175694
0.00200498
0.00234761
0.0028103
0.00341506
0.00416261
0.00500419
0.00579441
0.00615933
0.00621808
0.00593295
0.00551651
0.00418698
0.00133592
0.000660377
0.000612626
0.000687144
0.000815966
0.000984644
0.0011924
0.00143413
0.00168923
0.00188779
0.00195054
0.00192464
0.00179499
0.00161486
0.00145215
0.00134474
0.00128673
0.00125361
0.00123134
0.00121244
0.00119452
0.00118081
0.00117596
0.00118396
0.00121577
0.0012792
0.00138448
0.001545
0.00177906
0.00211203
0.00257732
0.00321214
0.00404107
0.0050376
0.00610582
0.00674392
0.0068857
0.00653384
0.005982
0.00519341
0.00133149
0.000669098
0.00061143
0.000680576
0.000803515
0.000965849
0.00116554
0.00139637
0.00163659
0.00182587
0.00188986
0.00186451
0.0017384
0.00156426
0.00140332
0.00129268
0.00122774
0.00118716
0.00115659
0.00112842
0.00110087
0.0010764
0.00106295
0.00106076
0.00108027
0.00113094
0.00122232
0.00136754
0.00158502
0.00190188
0.00235765
0.00300394
0.00389256
0.00503719
0.00634399
0.00735447
0.00766229
0.0072763
0.0065774
0.00618137
0.00131337
0.00067064
0.000605289
0.000664751
0.00077823
0.000930843
0.0011192
0.00133679
0.00156356
0.00175117
0.00182347
0.00180659
0.00169233
0.0015283
0.00136957
0.00125345
0.00118033
0.00113231
0.00109507
0.00106078
0.00102738
0.000996961
0.00097584
0.000968267
0.000978478
0.00101874
0.0010982
0.00122945
0.00143032
0.00172815
0.00216626
0.00280763
0.00372832
0.00498147
0.00651607
0.00793784
0.00848412
0.00807925
0.00722513
0.0071226
0.00127682
0.000667815
0.000592568
0.000641771
0.000745258
0.000886642
0.00106181
0.00126471
0.00147777
0.00166382
0.00175135
0.00174919
0.00165453
0.00150464
0.0013496
0.00122729
0.00114543
0.00108999
0.00104729
0.00100925
0.000973119
0.000940174
0.000914724
0.000903498
0.00090802
0.000940634
0.00101077
0.00113043
0.00131641
0.00159501
0.00201155
0.00263784
0.00357276
0.00491091
0.00664643
0.00849006
0.00937214
0.00905198
0.00789767
0.00806225
0.00122511
0.000660589
0.000576069
0.000615034
0.000707575
0.000836559
0.000997295
0.00118443
0.00138369
0.00156504
0.00167209
0.00168939
0.0016206
0.00149074
0.00134445
0.00121806
0.00112463
0.00106055
0.00101272
0.000972179
0.000935264
0.000902239
0.000876027
0.000862737
0.00086545
0.000894375
0.000958813
0.00106932
0.00124087
0.00150147
0.00189504
0.00249937
0.00343351
0.00483498
0.00676007
0.00897595
0.0102793
0.0101053
0.00865811
0.00899805
0.00116203
0.000649159
0.000557485
0.000586492
0.000667708
0.000783702
0.000929359
0.00110005
0.0012846
0.00145918
0.00158281
0.00162494
0.0015861
0.00148156
0.00134816
0.00122208
0.00112333
0.00104832
0.000992329
0.000948555
0.000911338
0.000879491
0.000854966
0.000842238
0.000846638
0.000874767
0.000936663
0.00104168
0.00120259
0.00144382
0.00181374
0.00239203
0.00331384
0.00475741
0.0068498
0.00942078
0.011225
0.0112578
0.00951475
0.00994676
0.00110461
0.000638438
0.000538491
0.00055782
0.000627752
0.000730664
0.00086113
0.00101515
0.00118425
0.00135041
0.00148335
0.00155157
0.00154381
0.00147323
0.00135807
0.00123573
0.00113163
0.0010515
0.000990367
0.000941353
0.000901979
0.00087063
0.000848081
0.000837811
0.000844097
0.000871959
0.000932757
0.00103479
0.00118932
0.00141595
0.00176165
0.00231187
0.00321306
0.00468012
0.00691359
0.00981012
0.0121864
0.0124767
0.0104702
0.0109083
0.00104907
0.000627694
0.000520597
0.000530404
0.000589305
0.00067948
0.000795096
0.000932641
0.00108584
0.00124164
0.00137771
0.00146686
0.00149083
0.00145441
0.00136997
0.00126139
0.00115502
0.00106696
0.000999345
0.000946875
0.000905869
0.000874578
0.000853761
0.000847283
0.000856197
0.000886013
0.000947408
0.00104596
0.00119192
0.00140696
0.00173064
0.00225204
0.00312652
0.00460194
0.00695046
0.0101674
0.0131386
0.0137868
0.0115359
0.0118904
0.000993162
0.000616792
0.000504268
0.000505409
0.000553311
0.000631568
0.000733088
0.000854783
0.000992037
0.00113563
0.00126951
0.00137226
0.00142481
0.00141923
0.00137122
0.00128822
0.00119237
0.00110224
0.00102619
0.00096714
0.000922882
0.00089107
0.000872182
0.000870165
0.000881747
0.000914284
0.000976803
0.00107217
0.00120983
0.00140943
0.00171242
0.00220458
0.0030478
0.00451889
0.00696301
0.0104859
0.0140689
0.0151673
0.0127137
0.0128925
0.000937622
0.000604874
0.000489466
0.000482925
0.000520751
0.000587913
0.000676337
0.000783149
0.00090488
0.00103509
0.00116253
0.00127127
0.00134454
0.00137066
0.0013556
0.00130306
0.00122811
0.00114767
0.00107278
0.00100992
0.000960991
0.000926729
0.000907611
0.000907172
0.000919653
0.000952811
0.00101395
0.00110451
0.00123299
0.00141726
0.00169879
0.00216116
0.00296958
0.00442522
0.00695106
0.0107627
0.0149698
0.0166317
0.0140162
0.0139162
0.000883701
0.000591728
0.000476018
0.000462984
0.000492014
0.000549048
0.000625545
0.000718692
0.00082576
0.000942216
0.00106029
0.00116858
0.00125375
0.00130441
0.00131615
0.00129598
0.00124915
0.00118687
0.00112178
0.00106218
0.00101291
0.000976762
0.000955617
0.000953644
0.000964813
0.000995113
0.00105159
0.00113485
0.00125158
0.00142055
0.00168141
0.00211369
0.00288346
0.00431093
0.00689088
0.0109828
0.0158176
0.0181574
0.0154518
0.0149585
0.000832569
0.000577198
0.000463633
0.000445497
0.00046723
0.000515018
0.000580942
0.000661825
0.000755424
0.000858473
0.000965592
0.00106877
0.00115803
0.00122362
0.00125923
0.00126523
0.00124516
0.00120552
0.0011571
0.00110723
0.00106249
0.00102724
0.00100471
0.000999401
0.00100772
0.00103262
0.00108114
0.00115364
0.00125902
0.00141447
0.00165448
0.00205618
0.00278349
0.00417052
0.00677929
0.0111177
0.016597
0.0197189
0.0170491
0.0160156
0.000785167
0.000561223
0.000451949
0.000430197
0.00044609
0.000485742
0.000542444
0.000612538
0.000694073
0.00078459
0.000880292
0.000975564
0.00106317
0.00113537
0.00118591
0.00121214
0.00121568
0.00119916
0.0011671
0.00113084
0.00109477
0.00106357
0.00104143
0.00103292
0.00103793
0.00105611
0.00109478
0.00115866
0.00125356
0.00139428
0.00161391
0.00198481
0.00266649
0.00400089
0.00661082
0.0111669
0.0172944
0.0212821
0.0188167
0.0170829
0.000742123
0.000543849
0.000440584
0.000416702
0.000428127
0.000460921
0.000509736
0.00057052
0.000641489
0.000720684
0.000805323
0.000891409
0.000973722
0.00104638
0.00110398
0.00114302
0.00116271
0.00116524
0.00115351
0.00112917
0.00110148
0.00107608
0.00105628
0.00104617
0.00104858
0.00106158
0.00109225
0.00114696
0.00123096
0.00135809
0.00155833
0.00189867
0.00253177
0.00380047
0.00637532
0.0111274
0.0178815
0.0228353
0.0207528
0.0181511
0.000703775
0.000525202
0.00042916
0.000404573
0.000412812
0.000440113
0.000482356
0.000535275
0.000597185
0.000666434
0.000740878
0.000817577
0.000892724
0.000961914
0.00102077
0.00106586
0.00109547
0.00110984
0.00111107
0.00110358
0.00108681
0.00106679
0.0010494
0.00103863
0.00103892
0.00104746
0.00107103
0.00111769
0.00119223
0.00130718
0.0014893
0.00179949
0.00238192
0.00357098
0.0060673
0.0109281
0.0182686
0.0243402
0.022835
0.0192109
0.000670304
0.000505491
0.000417345
0.000393359
0.000399603
0.000422811
0.000459773
0.000506223
0.000560541
0.000621265
0.000686655
0.000754452
0.000821805
0.000885398
0.000941804
0.00098803
0.00102211
0.00104346
0.0010528
0.00105193
0.00104599
0.001034
0.00102099
0.00101111
0.0010096
0.00101549
0.00103429
0.00107409
0.00114089
0.00124523
0.0014106
0.00169116
0.00222001
0.00331643
0.00569578
0.0105841
0.0184304
0.0257511
0.0250567
0.0202503
0.000641783
0.00048496
0.000404863
0.000382639
0.000388003
0.000408521
0.000441474
0.000482799
0.000530933
0.000584536
0.000642125
0.00070189
0.00076162
0.000818778
0.0008707
0.000914939
0.000949644
0.000973896
0.000987818
0.000992321
0.000990183
0.000983959
0.000974854
0.00096729
0.000965882
0.00097072
0.000986836
0.00102193
0.00108252
0.0011778
0.00132799
0.00157997
0.00205322
0.00304546
0.00526665
0.0100786
0.0184344
0.0270062
0.027371
0.0212596
0.000618527
0.000464001
0.00039157
0.000372088
0.000377624
0.000396845
0.00042706
0.000464576
0.000507884
0.000555731
0.00060681
0.000659611
0.000712369
0.0007631
0.000809732
0.000850316
0.000883287
0.000907703
0.000923398
0.000930966
0.000931605
0.00092865
0.000922772
0.000917439
0.000916765
0.000921301
0.00093612
0.000968361
0.00102424
0.00111208
0.00124902
0.00147438
0.00189181
0.00277167
0.004794
0.00940352
0.018021
0.0279966
0.0297412
0.0222293
0.000600775
0.000442853
0.000377398
0.000361518
0.00036827
0.000387608
0.000416416
0.000451478
0.000491325
0.000534772
0.000580653
0.000627687
0.000674433
0.000719316
0.000760718
0.000797116
0.000827263
0.000850352
0.000866149
0.000875039
0.000877935
0.000876818
0.000873794
0.000870748
0.000871194
0.000876455
0.000891394
0.00092249
0.000975149
0.00105738
0.00118369
0.0013858
0.00174985
0.00251532
0.00430822
0.00860461
0.0172903
0.028641
0.0320955
0.0231532
0.000589378
0.000422004
0.000362514
0.000351013
0.000360144
0.000381195
0.000410232
0.000444432
0.000482284
0.000522718
0.000564795
0.000607454
0.000649472
0.000689585
0.000726537
0.000759165
0.000786525
0.000808007
0.000823433
0.000833107
0.00083785
0.000838985
0.00083846
0.000838341
0.000840686
0.000848275
0.000865155
0.000896685
0.000948595
0.00102901
0.00115047
0.00133867
0.00166006
0.00231476
0.00385783
0.00775579
0.0162786
0.0289541
0.034329
0.0240334
0.000589604
0.000401878
0.000347365
0.000341317
0.000354753
0.000379879
0.000410756
0.000445587
0.000483337
0.000523015
0.000563525
0.000603769
0.000642899
0.000679983
0.000714094
0.000744393
0.000770215
0.000791157
0.000807142
0.000818464
0.000825852
0.000830428
0.000833706
0.000837531
0.000843738
0.000855368
0.000876132
0.000910875
0.000965585
0.00104787
0.0011693
0.00135043
0.00164372
0.0022258
0.00357769
0.00700783
0.015136
0.0290864
0.0362712
0.0248851
0.000605517
0.00038437
0.000333276
0.000335197
0.000355579
0.000384808
0.000419146
0.000456735
0.000496361
0.000537138
0.000578313
0.000619096
0.000658632
0.000696128
0.000730833
0.0007621
0.000789453
0.00081265
0.000831726
0.00084704
0.000859344
0.000869776
0.000879778
0.000891214
0.000906472
0.000928225
0.000959841
0.00100604
0.0010732
0.00116963
0.00130598
0.00150103
0.00179549
0.00232983
0.00353303
0.00666792
0.0143868
0.0291615
0.0376868
0.0257606
0.000643057
0.000370051
0.000326458
0.00033851
0.000367599
0.000405872
0.000448673
0.000493967
0.00054059
0.000587783
0.000634952
0.000681586
0.000727076
0.000770828
0.000812319
0.000851139
0.00088706
0.000920054
0.000950305
0.000978299
0.00100489
0.00103137
0.00105927
0.00109061
0.001128
0.00117443
0.00123367
0.00131104
0.00141379
0.00155235
0.00173991
0.00199657
0.00235584
0.00293741
0.00411919
0.00698765
0.014206
0.0295099
0.0383876
0.0267556
0.000713262
0.000370181
0.000335994
0.000365646
0.000415824
0.000475444
0.000539891
0.000606985
0.000675576
0.00074497
0.000814719
0.000884522
0.000954104
0.00102318
0.00109153
0.00115905
0.00122589
0.00129229
0.00135881
0.00142641
0.00149647
0.00157075
0.00165158
0.00174178
0.00184491
0.00196529
0.00210847
0.00228205
0.00249526
0.00276512
0.0031085
0.00356504
0.00414664
0.00502199
0.00642369
0.0094129
0.0161515
0.0310618
0.0387273
0.0273898
0.000816662
0.000396577
0.000402173
0.000491076
0.000605038
0.000732604
0.000869827
0.0010144
0.00116467
0.0013195
0.00147841
0.00164129
0.00180834
0.00197979
0.00215612
0.00233785
0.00252611
0.00272192
0.00292718
0.00314419
0.0033762
0.00362645
0.00389973
0.00420078
0.00453642
0.00491307
0.00534074
0.00583108
0.00639488
0.00706524
0.00785
0.00883892
0.00996904
0.0115409
0.0134672
0.0169751
0.0229381
0.0355288
0.0395893
0.0276681
0.0010559
0.00053678
0.000766606
0.00113873
0.0015543
0.00200726
0.00249946
0.00302651
0.00358097
0.00415619
0.00474913
0.00535829
0.00598428
0.00662717
0.0072887
0.00796957
0.00867303
0.00940088
0.0101584
0.0109482
0.011778
0.0126499
0.0135744
0.0145519
0.0155984
0.0167098
0.0179097
0.0191918
0.0205797
0.0220967
0.0237176
0.025596
0.0274478
0.029992
0.0325296
0.0366967
0.0404113
0.0453085
0.0426665
0.0276056
0.00168388
0.00126901
0.00299409
0.00526887
0.00749989
0.00977439
0.0121541
0.0146199
0.0171242
0.0196212
0.0220898
0.0245168
0.0269036
0.0292454
0.0315478
0.0338067
0.0360317
0.0382195
0.0403867
0.0425236
0.0446571
0.0467645
0.0488898
0.050983
0.0531218
0.0552089
0.057382
0.0594642
0.0616784
0.0637565
0.0659094
0.0679878
0.0699172
0.0722656
0.0727302
0.0712123
0.0661409
0.0551104
0.045357
0.0257499
0.00117822
0.00213095
0.00344304
0.00474546
0.00597925
0.00711021
0.00816092
0.00915864
0.0101243
0.0110635
0.0119832
0.0128791
0.0137602
0.0146181
0.015468
0.0162935
0.0171191
0.0179164
0.0187242
0.0194968
0.0202934
0.0210448
0.0218378
0.0225725
0.0233699
0.0240932
0.0249017
0.0256206
0.0264394
0.0271591
0.0279565
0.0286361
0.0293054
0.0298813
0.0302921
0.030877
0.0308473
0.030358
0.0288075
0.0235904
)
;

boundaryField
{
    movingWall
    {
        type            epsilonWallFunction;
        value           nonuniform List<scalar> 
40
(
0.00117822
0.00213095
0.00344304
0.00474546
0.00597925
0.00711021
0.00816092
0.00915864
0.0101243
0.0110635
0.0119832
0.0128791
0.0137602
0.0146181
0.015468
0.0162935
0.0171191
0.0179164
0.0187242
0.0194968
0.0202934
0.0210448
0.0218378
0.0225725
0.0233699
0.0240932
0.0249017
0.0256206
0.0264394
0.0271591
0.0279565
0.0286361
0.0293054
0.0298813
0.0302921
0.030877
0.0308473
0.030358
0.0288075
0.0235904
)
;
    }
    fixedWalls
    {
        type            epsilonWallFunction;
        value           nonuniform List<scalar> 
120
(
1.31094e-05
6.3922e-05
0.000156771
0.000284876
0.000437192
0.000601898
0.000766997
0.00092204
0.00105862
0.00117057
0.0012544
0.00130879
0.00133592
0.00133149
0.00131337
0.00127682
0.00122511
0.00116203
0.00110461
0.00104907
0.000993162
0.000937622
0.000883701
0.000832569
0.000785167
0.000742123
0.000703775
0.000670304
0.000641783
0.000618527
0.000600775
0.000589378
0.000589604
0.000605517
0.000643057
0.000713262
0.000816662
0.0010559
0.00168388
0.00117822
1.72549e-05
6.78844e-05
0.000120899
0.000135387
0.000128532
0.000125348
0.000169109
0.000321326
0.000773007
0.00181875
0.00301478
0.00418698
0.00519341
0.00618137
0.0071226
0.00806225
0.00899805
0.00994676
0.0109083
0.0118904
0.0128925
0.0139162
0.0149585
0.0160156
0.0170829
0.0181511
0.0192109
0.0202503
0.0212596
0.0222293
0.0231532
0.0240334
0.0248851
0.0257606
0.0267556
0.0273898
0.0276681
0.0276056
0.0257499
0.0235904
1.31094e-05
5.88728e-05
0.000113165
0.000165343
0.000215431
0.000264804
0.000312791
0.000357933
0.000399839
0.000441056
0.000486662
0.000542843
0.000616854
0.000721131
0.00086912
0.00107478
0.00134725
0.00168183
0.00205693
0.00244499
0.00282866
0.00320791
0.00359227
0.00399971
0.00446171
0.00503743
0.00557889
0.0060071
0.00623431
0.00631864
0.00609797
0.00548756
0.00444023
0.00309943
0.00190999
0.000975802
0.000435422
0.000192972
7.64983e-05
1.72549e-05
)
;
    }
    frontAndBack
    {
        type            empty;
    }
}


// ************************************************************************* //
