/*--------------------------------*- C++ -*----------------------------------*\
  =========                 |
  \\      /  F ield         | OpenFOAM: The Open Source CFD Toolbox
   \\    /   O peration     | Website:  https://openfoam.org
    \\  /    A nd           | Version:  12
     \\/     M anipulation  |
\*---------------------------------------------------------------------------*/
FoamFile
{
    format      ascii;
    class       volScalarField;
    location    "2";
    object      k;
}
// * * * * * * * * * * * * * * * * * * * * * * * * * * * * * * * * * * * * * //

dimensions      [0 2 -2 0 0 0 0];

internalField   nonuniform List<scalar> 
1600
(
1.02275e-06
4.59488e-06
8.8357e-06
1.29216e-05
1.68532e-05
2.07325e-05
2.45014e-05
2.80434e-05
3.13328e-05
3.45797e-05
3.81871e-05
4.26388e-05
4.84934e-05
5.67188e-05
6.83674e-05
8.45471e-05
0.000105974
0.000132243
0.000161618
0.000191925
0.000221855
0.000251465
0.00028152
0.00031344
0.000349695
0.000394913
0.000437332
0.000471021
0.000489068
0.000495834
0.000479364
0.000432012
0.000350513
0.000244821
0.000150899
7.69432e-05
3.42072e-05
1.50863e-05
5.958e-06
1.34281e-06
4.98918e-06
3.60922e-05
6.72264e-05
9.35633e-05
0.000118167
0.000141981
0.000164825
0.000186494
0.000207524
0.000229735
0.000255737
0.000287863
0.000327537
0.000376273
0.000434229
0.000500996
0.000574753
0.000652264
0.000730009
0.000805195
0.000876832
0.00094551
0.00101179
0.00107567
0.00113502
0.00118611
0.00123208
0.0012722
0.00129433
0.00130192
0.00127757
0.00119799
0.00105826
0.000835858
0.000587744
0.000347619
0.000174661
8.35187e-05
3.56801e-05
5.27481e-06
1.22464e-05
8.09027e-05
0.000139731
0.000187481
0.000230221
0.000269208
0.000304834
0.000338335
0.000372842
0.000413407
0.000465214
0.000529797
0.000603272
0.00067883
0.00075211
0.000821342
0.000885501
0.000942926
0.000992946
0.00103804
0.00108009
0.00111949
0.00115842
0.00119784
0.00123769
0.001276
0.00131495
0.00134982
0.00137329
0.00138273
0.00137598
0.001319
0.0012238
0.00104966
0.000791814
0.000516248
0.000267474
0.000133089
6.28912e-05
9.3865e-06
2.2295e-05
0.00013078
0.000212758
0.000275985
0.000331227
0.00038046
0.00042486
0.000467242
0.000513106
0.000569143
0.000638781
0.000718231
0.00079828
0.000870437
0.000930809
0.000978981
0.001016
0.00104511
0.00106885
0.00108953
0.00111008
0.00113222
0.00115671
0.00118277
0.00120862
0.00123522
0.00126132
0.00128457
0.00130236
0.00131098
0.0013132
0.00129513
0.00124483
0.00114543
0.000963682
0.000685331
0.000363221
0.000158625
7.17625e-05
1.04971e-05
3.42691e-05
0.000183273
0.000285558
0.000361395
0.000426387
0.000483623
0.000535293
0.000585567
0.000641159
0.000708037
0.000785703
0.000865311
0.000935362
0.00098889
0.001025
0.00104573
0.00105658
0.00106404
0.00107292
0.0010853
0.00110017
0.00111918
0.00114108
0.0011652
0.00119148
0.0012176
0.00124135
0.00126169
0.00127587
0.00128238
0.00128381
0.00126944
0.00123703
0.00118377
0.00108192
0.000887589
0.000531397
0.000198158
7.06386e-05
9.96668e-06
4.72406e-05
0.000235655
0.000355718
0.000442182
0.000514982
0.000578583
0.000636278
0.000693094
0.000755703
0.00082789
0.000905086
0.000975505
0.00102828
0.00105264
0.00106001
0.0010602
0.00105804
0.00105855
0.0010637
0.00107641
0.00109781
0.00112361
0.00115333
0.00118642
0.00122001
0.00125139
0.0012799
0.0013041
0.00132106
0.0013287
0.00133025
0.00131723
0.00128197
0.00122375
0.00113972
0.00101247
0.000771681
0.000303064
7.61801e-05
9.7714e-06
6.0259e-05
0.000285321
0.000420683
0.000516242
0.00059547
0.000664236
0.00072681
0.000788497
0.000855029
0.000927646
0.000999077
0.0010533
0.00107496
0.0010781
0.00106895
0.00105584
0.00104918
0.00104729
0.00105721
0.0010802
0.00110984
0.00114751
0.00118865
0.00123012
0.00127082
0.00131038
0.00134804
0.00138294
0.00141308
0.00143228
0.00143996
0.00143889
0.001411
0.00134746
0.00124148
0.00109274
0.000888385
0.000522702
0.000119472
1.3263e-05
7.24931e-05
0.0003301
0.000478232
0.000581586
0.000666249
0.000739309
0.000805716
0.000870554
0.000938158
0.00100745
0.00106838
0.00109568
0.00109959
0.00108625
0.00106327
0.00104478
0.00103838
0.00104004
0.00106027
0.00109253
0.00113173
0.0011737
0.00121644
0.00125872
0.00130039
0.00134227
0.00138558
0.0014307
0.00147698
0.00152019
0.00154673
0.0015561
0.00155202
0.00151157
0.00141857
0.00125738
0.00102687
0.000712378
0.000204748
2.52513e-05
8.32764e-05
0.000368415
0.00052672
0.000636671
0.000726004
0.000802716
0.000872062
0.000938553
0.00100511
0.00106918
0.00111038
0.00112079
0.00111117
0.00108271
0.00105119
0.00103381
0.00102942
0.00103789
0.00106578
0.00110219
0.0011413
0.00118155
0.00122176
0.00126205
0.00130297
0.00134602
0.00139252
0.00144338
0.00149949
0.00156194
0.00162292
0.00166101
0.0016728
0.00166059
0.00159401
0.00144754
0.0012018
0.000849298
0.000331705
6.08227e-05
9.21174e-05
0.000399312
0.000565211
0.000680557
0.000773912
0.000853797
0.000925402
0.000992406
0.00105622
0.0011119
0.00113599
0.00113646
0.00111261
0.00107427
0.00103856
0.00102385
0.0010214
0.00103489
0.00106472
0.00109999
0.001136
0.00117153
0.0012063
0.00124181
0.00128051
0.00132422
0.0013744
0.00143234
0.00149868
0.00157259
0.00165436
0.00173626
0.00178128
0.00179354
0.00176256
0.00164375
0.00141068
0.00105516
0.000556732
0.000142661
9.87364e-05
0.000422445
0.000593487
0.000712978
0.000809722
0.00089239
0.000965823
0.00103282
0.00109383
0.00113833
0.00115211
0.00114382
0.00110962
0.00106316
0.00102753
0.00101424
0.001013
0.00102871
0.00105767
0.00108835
0.0011172
0.00114446
0.00117202
0.00120246
0.0012382
0.00128127
0.00133362
0.00139698
0.00147265
0.0015611
0.00166071
0.00176856
0.00186705
0.00191042
0.00191404
0.0018304
0.00160746
0.0012263
0.00067302
0.000235771
0.000103027
0.000438077
0.000611968
0.000734325
0.000833823
0.000918967
0.000994039
0.00106084
0.00111849
0.00115384
0.00116175
0.0011456
0.00110404
0.00105322
0.00101719
0.00100385
0.00100258
0.00101678
0.00104105
0.00106429
0.00108522
0.00110517
0.00112628
0.00115145
0.00118355
0.00122523
0.0012788
0.00134627
0.0014293
0.00152915
0.00164587
0.00177617
0.00191406
0.00201568
0.00204937
0.00201264
0.00181845
0.00143358
0.000853195
0.000327216
0.000105158
0.000447049
0.000621468
0.000745245
0.000846603
0.000933735
0.0010102
0.00107687
0.00113184
0.00116152
0.00116597
0.00114452
0.00109865
0.00104536
0.0010073
0.000992196
0.000989636
0.000999528
0.00101732
0.00103387
0.00104784
0.00106085
0.0010756
0.00109542
0.00112368
0.00116359
0.00121787
0.00128866
0.00137772
0.0014867
0.00161702
0.00176815
0.00193353
0.00209441
0.00217367
0.00217775
0.00201557
0.00162178
0.000990187
0.000405592
0.000104793
0.000448627
0.000621282
0.00074512
0.000847615
0.000936374
0.00101424
0.0010813
0.00113487
0.00116233
0.00116565
0.00114228
0.00109421
0.00104001
0.000998348
0.000979804
0.00097489
0.000979364
0.000990736
0.00100119
0.00100911
0.00101608
0.00102504
0.00103982
0.00106435
0.00110243
0.00115725
0.00123103
0.00132531
0.00144173
0.00158249
0.0017493
0.00193951
0.0021418
0.00229
0.00233182
0.00221676
0.00182156
0.00114221
0.00048275
0.000103346
0.000446658
0.000617237
0.00074036
0.000842931
0.000932236
0.00101076
0.00107827
0.00113188
0.00115997
0.00116368
0.00113979
0.0010921
0.0010376
0.000991895
0.000967801
0.000959015
0.000958512
0.000963783
0.000968934
0.00097195
0.000974079
0.000978273
0.000988668
0.00100988
0.00104638
0.0011019
0.0011787
0.00127788
0.00140072
0.00154978
0.0017288
0.00193952
0.00217298
0.00238517
0.00247496
0.0024074
0.00201444
0.00128534
0.000556131
0.000100433
0.000441315
0.000607707
0.000729047
0.000831284
0.000921237
0.00100084
0.0010694
0.00112372
0.001154
0.00115934
0.00113795
0.00109277
0.00103856
0.000990291
0.00095832
0.000943453
0.000938435
0.000938259
0.000938832
0.000938079
0.000936811
0.000937532
0.000944624
0.000963297
0.000998768
0.00105543
0.00113558
0.00123952
0.0013679
0.00152325
0.00171071
0.00193595
0.00219564
0.00246093
0.00260896
0.00259195
0.00221028
0.00143118
0.000629538
9.63264e-05
0.000432025
0.000593557
0.000712233
0.0008132
0.000902968
0.000983162
0.00105289
0.00110896
0.00114356
0.00115284
0.0011364
0.00109523
0.00104231
0.000992098
0.0009546
0.000931562
0.00092042
0.000915291
0.000912079
0.000908555
0.000905083
0.000903945
0.00090919
0.000926471
0.000961774
0.0010203
0.00110439
0.00121394
0.00134779
0.00150768
0.00169997
0.00193428
0.00221389
0.00251778
0.00273497
0.00276404
0.00240169
0.00157429
0.000702554
9.13111e-05
0.000420897
0.000576849
0.000692259
0.000791327
0.000880323
0.000960702
0.00103152
0.00108972
0.00112939
0.00114463
0.00113501
0.00110026
0.00105052
0.000998436
0.000956449
0.000926869
0.000907745
0.00089695
0.000889951
0.000884247
0.000879678
0.000878195
0.000883213
0.000900567
0.000937828
0.00100002
0.00108862
0.0012025
0.0013399
0.0015019
0.00169598
0.00193445
0.00222864
0.00256408
0.00284812
0.00292729
0.00259366
0.00172209
0.00077667
8.67574e-05
0.000407945
0.000558633
0.000670412
0.000767075
0.000854744
0.000934824
0.00100645
0.00106687
0.00111133
0.00113417
0.00113265
0.00110732
0.00106331
0.00101214
0.0009647
0.00092957
0.000904867
0.00088707
0.000875182
0.000867093
0.000862009
0.000861539
0.000867776
0.000887362
0.000927935
0.000993056
0.00108439
0.00120064
0.00133977
0.00150283
0.00169718
0.0019378
0.00224117
0.00260191
0.00294459
0.00307934
0.00278079
0.00187048
0.000851731
8.23512e-05
0.000393446
0.000539663
0.000647754
0.000741663
0.000827526
0.000906799
0.000978796
0.0010412
0.00109009
0.00112047
0.00112835
0.00111373
0.00107952
0.0010326
0.000983546
0.000941036
0.000910149
0.000888217
0.000872379
0.000861218
0.000855171
0.000855811
0.000863579
0.000885422
0.000929068
0.000997573
0.00109219
0.00121094
0.00135105
0.00151311
0.00170473
0.00194292
0.00224961
0.00263191
0.00302556
0.00322173
0.00296673
0.00202382
0.000928451
7.79155e-05
0.000378315
0.000520574
0.000625091
0.000716085
0.000799777
0.000877786
0.000949652
0.00101351
0.00106617
0.00110344
0.00112113
0.00111703
0.001096
0.00105752
0.00101192
0.000966853
0.000928034
0.00089966
0.000879676
0.000866418
0.000859991
0.000861848
0.000871981
0.000897021
0.000944181
0.00101548
0.00111183
0.0012309
0.00136962
0.00152829
0.00171469
0.00194669
0.0022527
0.00265061
0.0030897
0.00335235
0.00314849
0.00218068
0.0010067
7.35113e-05
0.000363058
0.000501817
0.000603013
0.000691093
0.000772401
0.000848784
0.000920035
0.000984713
0.0010403
0.00108337
0.00111015
0.00111717
0.00110808
0.00108306
0.00104528
0.00100354
0.000963638
0.000929316
0.000903329
0.000886352
0.000879053
0.000882205
0.000894694
0.000922563
0.000971728
0.0010438
0.00113941
0.00125621
0.00139112
0.00154428
0.00172302
0.00194766
0.00225059
0.00265757
0.00313947
0.00347173
0.00332813
0.00234379
0.00108666
6.92394e-05
0.00034807
0.00048373
0.00058193
0.000667228
0.000746093
0.000820613
0.000890846
0.000955735
0.00101333
0.00106092
0.00109539
0.00111404
0.00111505
0.0011034
0.00107797
0.00104406
0.00100807
0.000974515
0.000946843
0.0009273
0.000917964
0.000920657
0.000932727
0.000960247
0.00100864
0.00107855
0.00117049
0.00128236
0.00141118
0.00155646
0.00172619
0.00194191
0.00223846
0.00265419
0.00316863
0.0035773
0.00350317
0.00251275
0.00116804
6.51919e-05
0.0003336
0.00046652
0.000562089
0.000644842
0.000721345
0.000793901
0.000862831
0.000927415
0.000986165
0.00103697
0.00107731
0.00110487
0.00111666
0.00111559
0.00110431
0.00108151
0.00105327
0.00102432
0.000998487
0.000978833
0.000968166
0.000969795
0.000980053
0.00100485
0.00104968
0.0011146
0.00120026
0.00130488
0.00142511
0.00156139
0.0017221
0.00192633
0.00221354
0.0026329
0.00317972
0.00366946
0.00367291
0.00268893
0.0012506
6.1442e-05
0.000319835
0.000450303
0.000543614
0.00062413
0.000698471
0.000769093
0.000836573
0.00090047
0.000959671
0.00101254
0.00105707
0.00109126
0.00111342
0.0011222
0.00112028
0.00111044
0.00109191
0.00107014
0.0010488
0.00103121
0.00102044
0.00102076
0.00102862
0.00104941
0.00108866
0.00114662
0.00122416
0.00131931
0.00143039
0.00155792
0.00170743
0.00189901
0.00217483
0.00259534
0.0031774
0.00374554
0.00383399
0.00287281
0.00133393
5.80387e-05
0.000306918
0.000435134
0.000526544
0.000605176
0.000677638
0.000746481
0.000812501
0.000875485
0.000934611
0.000988606
0.00103589
0.00107481
0.00110404
0.00112156
0.00112907
0.0011275
0.00111986
0.00110594
0.00109035
0.00107618
0.0010665
0.00106535
0.00107111
0.00108753
0.0011202
0.00117033
0.00123833
0.00132413
0.00142606
0.0015431
0.00168091
0.00185885
0.0021209
0.00253749
0.00314627
0.00379383
0.00398526
0.00306529
0.00141734
5.5008e-05
0.000294957
0.00042103
0.000510864
0.000587989
0.000658926
0.00072625
0.000790927
0.000852921
0.000911632
0.00096606
0.00101494
0.0010569
0.00109073
0.00111557
0.00112976
0.00113611
0.00113506
0.00112949
0.00111954
0.00110908
0.00110096
0.00109877
0.00110265
0.00111501
0.00114095
0.00118294
0.00124215
0.00131851
0.00141024
0.00151661
0.0016424
0.00180592
0.00205215
0.00246105
0.00309351
0.00381493
0.00412279
0.00326471
0.00150007
5.23638e-05
0.000284048
0.000407991
0.000496542
0.000572556
0.000642376
0.000708535
0.000772101
0.000833166
0.000891291
0.000945674
0.00099528
0.00103897
0.00107568
0.00110458
0.00112523
0.00113657
0.00114131
0.0011404
0.00113611
0.00112897
0.0011224
0.00111945
0.00112163
0.00113032
0.00115008
0.00118471
0.00123517
0.00130182
0.00138345
0.00147918
0.00159282
0.00174112
0.00196894
0.00236431
0.00301426
0.00381782
0.00424204
0.00347006
0.00158121
5.01106e-05
0.000274269
0.000396024
0.000483567
0.00055889
0.000628057
0.000693489
0.000756279
0.000816593
0.000874103
0.000928148
0.000977864
0.00102229
0.0010605
0.00109173
0.00111553
0.00113185
0.00114025
0.00114262
0.00114113
0.00113704
0.00113165
0.00112799
0.00112858
0.00113397
0.0011483
0.00117597
0.00121805
0.00127536
0.00134716
0.00143245
0.00153396
0.00166642
0.00187304
0.00224729
0.00290158
0.00377321
0.00433386
0.00367763
0.00165999
4.82717e-05
0.00026576
0.000385196
0.000472003
0.0005471
0.000616145
0.000681369
0.000743801
0.000803627
0.000860587
0.000914126
0.000963507
0.00100792
0.00104655
0.00107875
0.00110406
0.00112237
0.00113393
0.00113905
0.00113886
0.00113617
0.00113119
0.00112683
0.00112564
0.00112855
0.00113815
0.00115875
0.00119292
0.00124134
0.00130365
0.00137877
0.00146834
0.00158456
0.00176755
0.00211339
0.00275903
0.00368767
0.0043885
0.00388471
0.00173567
4.68667e-05
0.000258729
0.000375665
0.000462064
0.000537485
0.000607022
0.000672627
0.000735164
0.000794787
0.000851273
0.000904165
0.000952841
0.000996618
0.00103483
0.00106689
0.00109243
0.00111132
0.00112371
0.0011301
0.00113114
0.00112915
0.00112453
0.00111919
0.00111563
0.00111609
0.00112149
0.00113581
0.00116268
0.00120271
0.00125591
0.00132121
0.00139915
0.00149906
0.00165639
0.00196613
0.00258575
0.00355405
0.0044107
0.00408411
0.00180777
4.59529e-05
0.000253285
0.000367736
0.000454229
0.00053068
0.000601422
0.000668041
0.000731101
0.000790672
0.000846599
0.000898603
0.000946159
0.00098873
0.00102578
0.00105685
0.00108164
0.00110005
0.00111225
0.00111863
0.00111973
0.00111764
0.00111279
0.00110665
0.00110142
0.00109949
0.00110203
0.00111122
0.00113106
0.00116328
0.00120778
0.0012636
0.00133035
0.00141439
0.00154573
0.00181417
0.00238829
0.0033806
0.00441302
0.00426594
0.00187647
4.59543e-05
0.000250835
0.000362355
0.000449695
0.000528136
0.000600733
0.000668451
0.000731898
0.000791319
0.000846602
0.000897275
0.000943141
0.000983938
0.00101922
0.00104867
0.00107208
0.00108942
0.00110087
0.00110681
0.00110768
0.00110547
0.00110042
0.00109382
0.00108759
0.00108375
0.00108429
0.00108958
0.00110333
0.00112861
0.00116519
0.00121232
0.001269
0.00133869
0.00144469
0.0016681
0.00218404
0.00318091
0.00437335
0.00440657
0.00194293
4.71773e-05
0.00025086
0.000361157
0.000449907
0.000529936
0.000603953
0.0006727
0.00073645
0.000795349
0.000849462
0.000898777
0.000943019
0.000981691
0.00101489
0.00104249
0.0010644
0.00108068
0.00109154
0.00109735
0.00109855
0.00109672
0.00109237
0.00108635
0.00108036
0.00107608
0.00107555
0.00107878
0.00108857
0.00110845
0.00113885
0.00117997
0.00123118
0.00129449
0.0013891
0.00158772
0.00204775
0.00300981
0.00432982
0.00447398
0.00201127
5.00932e-05
0.000252624
0.000363526
0.000454509
0.000537072
0.000612913
0.000682464
0.00074586
0.000803463
0.000855726
0.000902965
0.00094513
0.000982243
0.00101403
0.00104052
0.00106187
0.00107824
0.00108988
0.00109709
0.0011001
0.00109985
0.00109793
0.00109432
0.00109076
0.00108886
0.00108998
0.00109468
0.00110548
0.00112513
0.00115484
0.00119557
0.00124737
0.00131177
0.00140368
0.00158436
0.00200879
0.00293966
0.00430886
0.00449059
0.00208893
5.55566e-05
0.000259162
0.000373186
0.000467734
0.000552695
0.000629531
0.000698976
0.000761666
0.000818242
0.000869241
0.000915112
0.000956234
0.000992877
0.00102509
0.00105291
0.00107639
0.00109574
0.00111119
0.0011231
0.0011321
0.00113879
0.00114437
0.00114951
0.0011554
0.00116344
0.00117504
0.00119142
0.00121461
0.00124699
0.00129143
0.00135038
0.00142734
0.00152221
0.00165135
0.00184496
0.00223877
0.00304091
0.0043245
0.00443371
0.0021384
6.36129e-05
0.000276978
0.000399741
0.000500005
0.000588848
0.000668699
0.000740876
0.000806491
0.000866468
0.000921532
0.000972342
0.00101949
0.00106343
0.00110445
0.00114276
0.00117853
0.00121207
0.0012437
0.00127394
0.00130355
0.0013333
0.00136415
0.00139724
0.00143375
0.00147504
0.00152268
0.00157834
0.00164419
0.00172196
0.00181676
0.00193087
0.00207237
0.00223643
0.00244468
0.00268122
0.00305748
0.00364962
0.00455582
0.00440888
0.0021601
8.22784e-05
0.000328073
0.000480858
0.000607973
0.000723657
0.000831339
0.000933614
0.00103174
0.00112628
0.00121771
0.00130668
0.00139385
0.00147987
0.00156518
0.00165025
0.00173539
0.0018211
0.00190785
0.00199632
0.00208719
0.00218135
0.00227948
0.00238266
0.00249161
0.00260766
0.00273131
0.00286436
0.00300739
0.00316137
0.00333232
0.00351869
0.0037283
0.00394167
0.0042006
0.00444296
0.00475618
0.00500271
0.00505621
0.00441197
0.00215508
0.000131319
0.000505372
0.000838029
0.00116342
0.00144791
0.00171091
0.00196512
0.00221221
0.00245059
0.00267884
0.00289732
0.00310682
0.00330868
0.00350365
0.0036928
0.00387653
0.00405588
0.00423116
0.00440364
0.00457318
0.0047415
0.00490776
0.00507441
0.00523917
0.00540626
0.00557074
0.00574041
0.00590499
0.00607904
0.00624256
0.0064117
0.0065728
0.00673047
0.00690991
0.00695447
0.00683071
0.00641487
0.00544485
0.00420666
0.00201008
9.18717e-05
0.000166191
0.000268547
0.000370194
0.000466486
0.000554739
0.000636719
0.000714548
0.000789857
0.00086309
0.000934783
0.00100461
0.00107328
0.00114012
0.00120634
0.00127066
0.00133498
0.00139709
0.00146005
0.00152025
0.00158235
0.00164092
0.00170278
0.00176008
0.00182231
0.00187877
0.00194189
0.00199806
0.00206202
0.00211831
0.00218064
0.00223386
0.00228621
0.0023314
0.00236355
0.00240953
0.00240731
0.00236924
0.00224834
0.00184129
)
;

boundaryField
{
    movingWall
    {
        type            kqRWallFunction;
        value           nonuniform List<scalar> 
40
(
9.18717e-05
0.000166191
0.000268547
0.000370194
0.000466486
0.000554739
0.000636719
0.000714548
0.000789857
0.00086309
0.000934783
0.00100461
0.00107328
0.00114012
0.00120634
0.00127066
0.00133498
0.00139709
0.00146005
0.00152025
0.00158235
0.00164092
0.00170278
0.00176008
0.00182231
0.00187877
0.00194189
0.00199806
0.00206202
0.00211831
0.00218064
0.00223386
0.00228621
0.0023314
0.00236355
0.00240953
0.00240731
0.00236924
0.00224834
0.00184129
)
;
    }
    fixedWalls
    {
        type            kqRWallFunction;
        value           nonuniform List<scalar> 
120
(
1.02275e-06
4.98918e-06
1.22464e-05
2.2295e-05
3.42691e-05
4.72406e-05
6.0259e-05
7.24931e-05
8.32764e-05
9.21174e-05
9.87364e-05
0.000103027
0.000105158
0.000104793
0.000103346
0.000100433
9.63264e-05
9.13111e-05
8.67574e-05
8.23512e-05
7.79155e-05
7.35113e-05
6.92394e-05
6.51919e-05
6.1442e-05
5.80387e-05
5.5008e-05
5.23638e-05
5.01106e-05
4.82717e-05
4.68667e-05
4.59529e-05
4.59543e-05
4.71773e-05
5.00932e-05
5.55566e-05
6.36129e-05
8.22784e-05
0.000131319
9.18717e-05
1.34281e-06
5.27481e-06
9.3865e-06
1.04971e-05
9.96668e-06
9.7714e-06
1.3263e-05
2.52513e-05
6.08227e-05
0.000142661
0.000235771
0.000327216
0.000405592
0.00048275
0.000556131
0.000629538
0.000702554
0.00077667
0.000851731
0.000928451
0.0010067
0.00108666
0.00116804
0.0012506
0.00133393
0.00141734
0.00150007
0.00158121
0.00165999
0.00173567
0.00180777
0.00187647
0.00194293
0.00201127
0.00208893
0.0021384
0.0021601
0.00215508
0.00201008
0.00184129
1.02275e-06
4.59488e-06
8.8357e-06
1.29216e-05
1.68532e-05
2.07325e-05
2.45014e-05
2.80434e-05
3.13328e-05
3.45797e-05
3.81871e-05
4.26388e-05
4.84934e-05
5.67188e-05
6.83674e-05
8.45471e-05
0.000105974
0.000132243
0.000161618
0.000191925
0.000221855
0.000251465
0.00028152
0.00031344
0.000349695
0.000394913
0.000437332
0.000471021
0.000489068
0.000495834
0.000479364
0.000432012
0.000350513
0.000244821
0.000150899
7.69432e-05
3.42072e-05
1.50863e-05
5.958e-06
1.34281e-06
)
;
    }
    frontAndBack
    {
        type            empty;
    }
}


// ************************************************************************* //
