/*--------------------------------*- C++ -*----------------------------------*\
  =========                 |
  \\      /  F ield         | OpenFOAM: The Open Source CFD Toolbox
   \\    /   O peration     | Website:  https://openfoam.org
    \\  /    A nd           | Version:  12
     \\/     M anipulation  |
\*---------------------------------------------------------------------------*/
FoamFile
{
    format      ascii;
    class       volScalarField;
    location    "2";
    object      nut;
}
// * * * * * * * * * * * * * * * * * * * * * * * * * * * * * * * * * * * * * //

dimensions      [0 2 -1 0 0 0 0];

internalField   nonuniform List<scalar> 
1600
(
7.18126e-09
3.22758e-08
6.20886e-08
9.08845e-08
1.18659e-07
1.46091e-07
1.72731e-07
1.97744e-07
2.20982e-07
2.44001e-07
2.6968e-07
3.01424e-07
3.43103e-07
4.01497e-07
4.84018e-07
5.98577e-07
7.5022e-07
9.35849e-07
1.14289e-06
1.3559e-06
1.56603e-06
1.77409e-06
1.98561e-06
2.21067e-06
2.46672e-06
2.78635e-06
3.08544e-06
3.32398e-06
3.45296e-06
3.50181e-06
3.39147e-06
3.06094e-06
2.49025e-06
1.74044e-06
1.07297e-06
5.46036e-07
2.41862e-07
1.06148e-07
4.1763e-08
9.40505e-09
3.50469e-08
1.97301e-06
4.49335e-06
6.07505e-06
7.27865e-06
8.26303e-06
8.98717e-06
9.40656e-06
9.55098e-06
9.55742e-06
9.50248e-06
9.43549e-06
9.35619e-06
9.45637e-06
9.84243e-06
1.06128e-05
1.18141e-05
1.34349e-05
1.54234e-05
1.76177e-05
1.98721e-05
2.21006e-05
2.42142e-05
2.61195e-05
2.76908e-05
2.88195e-05
2.95762e-05
3.0201e-05
3.0291e-05
3.02568e-05
2.94241e-05
2.75035e-05
2.45301e-05
1.97382e-05
1.50918e-05
1.02063e-05
6.04915e-06
3.17203e-06
1.33563e-06
3.68881e-08
8.60988e-08
5.62232e-06
1.31258e-05
1.74299e-05
2.00154e-05
2.15254e-05
2.21236e-05
2.19638e-05
2.13277e-05
2.05712e-05
2.00948e-05
2.0049e-05
2.04328e-05
2.11177e-05
2.21728e-05
2.36702e-05
2.56024e-05
2.76593e-05
2.94745e-05
3.13725e-05
3.34723e-05
3.53119e-05
3.68945e-05
3.81579e-05
3.90269e-05
3.93642e-05
3.94782e-05
3.91949e-05
3.82851e-05
3.69163e-05
3.56611e-05
3.25811e-05
2.94304e-05
2.386e-05
1.73583e-05
1.2678e-05
8.55481e-06
5.9925e-06
3.11229e-06
6.55882e-08
1.57037e-07
9.29243e-06
2.0944e-05
2.70961e-05
3.03226e-05
3.1752e-05
3.18195e-05
3.09372e-05
2.96896e-05
2.87024e-05
2.83625e-05
2.86563e-05
2.93816e-05
3.0408e-05
3.17386e-05
3.32934e-05
3.47243e-05
3.63909e-05
3.81809e-05
3.99922e-05
4.15971e-05
4.29758e-05
4.40857e-05
4.48727e-05
4.52397e-05
4.53114e-05
4.5019e-05
4.42362e-05
4.28601e-05
4.07516e-05
3.82642e-05
3.50748e-05
3.15292e-05
2.67175e-05
2.04183e-05
1.31381e-05
8.28972e-06
5.28363e-06
3.1549e-06
7.32492e-08
2.41755e-07
1.28364e-05
2.80692e-05
3.56378e-05
3.91888e-05
4.03351e-05
3.98122e-05
3.83043e-05
3.66433e-05
3.55625e-05
3.53367e-05
3.57635e-05
3.65192e-05
3.74572e-05
3.87281e-05
3.97377e-05
4.08885e-05
4.27776e-05
4.45958e-05
4.62916e-05
4.78056e-05
4.92624e-05
5.02042e-05
5.09142e-05
5.12797e-05
5.12383e-05
5.06814e-05
4.95979e-05
4.78794e-05
4.55384e-05
4.28762e-05
3.94042e-05
3.51206e-05
3.02044e-05
2.45774e-05
1.73653e-05
8.78669e-06
4.19719e-06
2.16545e-06
6.95558e-08
3.33696e-07
1.61205e-05
3.44673e-05
4.32153e-05
4.69393e-05
4.77263e-05
4.66245e-05
4.45748e-05
4.25859e-05
4.13996e-05
4.1139e-05
4.14288e-05
4.2259e-05
4.28859e-05
4.31979e-05
4.44795e-05
4.62727e-05
4.83143e-05
5.00168e-05
5.17136e-05
5.38146e-05
5.53288e-05
5.65177e-05
5.75445e-05
5.81258e-05
5.81389e-05
5.75618e-05
5.63349e-05
5.43162e-05
5.15307e-05
4.8401e-05
4.46377e-05
3.99146e-05
3.43952e-05
2.82272e-05
2.16551e-05
1.33587e-05
4.54387e-06
1.47804e-06
6.85549e-08
4.26082e-07
1.90364e-05
4.00817e-05
4.98861e-05
5.37382e-05
5.417e-05
5.25373e-05
5.00085e-05
4.77068e-05
4.63346e-05
4.58978e-05
4.61605e-05
4.64306e-05
4.6473e-05
4.73212e-05
4.88891e-05
5.11638e-05
5.28649e-05
5.46707e-05
5.71987e-05
5.93784e-05
6.14168e-05
6.33046e-05
6.47385e-05
6.56468e-05
6.60312e-05
6.58128e-05
6.49319e-05
6.32843e-05
6.05067e-05
5.69636e-05
5.33466e-05
4.84964e-05
4.20622e-05
3.40714e-05
2.53657e-05
1.65305e-05
7.11309e-06
1.68309e-06
9.36177e-08
5.12964e-07
2.1521e-05
4.48665e-05
5.56726e-05
5.96805e-05
5.98188e-05
5.77285e-05
5.47677e-05
5.21324e-05
5.04932e-05
4.98414e-05
4.97356e-05
4.95823e-05
4.98654e-05
5.09444e-05
5.29571e-05
5.52257e-05
5.67673e-05
5.9381e-05
6.25146e-05
6.51588e-05
6.75524e-05
6.95901e-05
7.10892e-05
7.20055e-05
7.2353e-05
7.21829e-05
7.14969e-05
7.02756e-05
6.83086e-05
6.47942e-05
5.99733e-05
5.56025e-05
5.01674e-05
4.28555e-05
3.27921e-05
2.15747e-05
1.09013e-05
2.36143e-06
1.78593e-07
5.89587e-07
2.35707e-05
4.87776e-05
6.05929e-05
6.48346e-05
6.47829e-05
6.23285e-05
5.89805e-05
5.598e-05
5.39862e-05
5.30365e-05
5.26756e-05
5.24588e-05
5.27921e-05
5.40988e-05
5.66093e-05
5.86039e-05
6.05631e-05
6.4002e-05
6.73944e-05
7.01985e-05
7.28405e-05
7.50567e-05
7.67401e-05
7.77974e-05
7.82217e-05
7.80009e-05
7.71334e-05
7.57071e-05
7.39678e-05
7.15357e-05
6.72729e-05
6.13907e-05
5.61321e-05
4.98542e-05
4.05481e-05
2.78767e-05
1.45727e-05
3.22142e-06
4.30716e-07
6.52423e-07
2.51476e-05
5.1853e-05
6.46798e-05
6.92604e-05
6.91508e-05
6.64433e-05
6.27606e-05
5.9397e-05
5.70157e-05
5.58181e-05
5.53121e-05
5.48844e-05
5.53802e-05
5.69251e-05
5.96775e-05
6.16071e-05
6.4095e-05
6.79395e-05
7.15398e-05
7.46868e-05
7.76086e-05
7.99968e-05
8.18082e-05
8.3077e-05
8.374e-05
8.37174e-05
8.2974e-05
8.14994e-05
7.92865e-05
7.66833e-05
7.35887e-05
6.8048e-05
6.16502e-05
5.60672e-05
4.7709e-05
3.50233e-05
2.01704e-05
6.46975e-06
1.00712e-06
6.99457e-07
2.62557e-05
5.41461e-05
6.79825e-05
7.30246e-05
7.30057e-05
7.01758e-05
6.62716e-05
6.26563e-05
5.96525e-05
5.82459e-05
5.75204e-05
5.70576e-05
5.74983e-05
5.9415e-05
6.22677e-05
6.43563e-05
6.73395e-05
7.14415e-05
7.52996e-05
7.85429e-05
8.14707e-05
8.3962e-05
8.60259e-05
8.75921e-05
8.854e-05
8.87729e-05
8.82228e-05
8.68653e-05
8.47284e-05
8.18647e-05
7.85596e-05
7.43032e-05
6.69727e-05
6.11079e-05
5.40314e-05
4.15731e-05
2.53179e-05
8.41638e-06
1.65946e-06
7.29918e-07
2.69301e-05
5.57335e-05
7.06302e-05
7.63869e-05
7.67148e-05
7.39726e-05
6.98908e-05
6.56876e-05
6.19851e-05
6.05946e-05
5.94695e-05
5.88939e-05
5.93305e-05
6.13862e-05
6.43595e-05
6.67068e-05
6.996e-05
7.40651e-05
7.77943e-05
8.10899e-05
8.41638e-05
8.68819e-05
8.9242e-05
9.11359e-05
9.24541e-05
9.30662e-05
9.28438e-05
9.17027e-05
8.96431e-05
8.67527e-05
8.31404e-05
7.92111e-05
7.30719e-05
6.52341e-05
5.91891e-05
4.78616e-05
3.11755e-05
1.18761e-05
2.3015e-06
7.4499e-07
2.72371e-05
5.67395e-05
7.27434e-05
7.9055e-05
7.96913e-05
7.70252e-05
7.27742e-05
6.82531e-05
6.43193e-05
6.2728e-05
6.12552e-05
6.052e-05
6.09027e-05
6.28851e-05
6.5887e-05
6.85025e-05
7.17249e-05
7.56445e-05
7.93444e-05
8.27254e-05
8.57774e-05
8.85434e-05
9.12154e-05
9.34706e-05
9.52574e-05
9.64177e-05
9.67373e-05
9.60222e-05
9.41864e-05
9.13067e-05
8.75968e-05
8.32619e-05
7.83687e-05
6.96446e-05
6.32919e-05
5.30993e-05
3.62289e-05
1.47513e-05
2.85081e-06
7.42279e-07
2.70722e-05
5.68164e-05
7.34207e-05
8.04722e-05
8.1702e-05
7.94331e-05
7.53593e-05
7.08266e-05
6.65936e-05
6.4707e-05
6.29831e-05
6.1986e-05
6.22313e-05
6.3922e-05
6.68392e-05
6.96702e-05
7.27148e-05
7.638e-05
7.9947e-05
8.32491e-05
8.63215e-05
8.89639e-05
9.17368e-05
9.43792e-05
9.67175e-05
9.86079e-05
9.97334e-05
9.97341e-05
9.83623e-05
9.55968e-05
9.16814e-05
8.69741e-05
8.19621e-05
7.43962e-05
6.65397e-05
5.77192e-05
4.1041e-05
1.78517e-05
3.39315e-06
7.31884e-07
2.67734e-05
5.66478e-05
7.42112e-05
8.2171e-05
8.40268e-05
8.21546e-05
7.82777e-05
7.37443e-05
6.91522e-05
6.68359e-05
6.47193e-05
6.34281e-05
6.34009e-05
6.46532e-05
6.72524e-05
7.01275e-05
7.30252e-05
7.63414e-05
7.9654e-05
8.27555e-05
8.5655e-05
8.8264e-05
9.08549e-05
9.38068e-05
9.67301e-05
9.95046e-05
0.000101704
0.000102753
0.00010218
9.97864e-05
9.5806e-05
9.08067e-05
8.53091e-05
7.8577e-05
6.94509e-05
6.148e-05
4.52045e-05
2.05793e-05
3.90803e-06
7.11002e-07
2.62473e-05
5.60909e-05
7.45373e-05
8.34516e-05
8.61463e-05
8.49035e-05
8.13825e-05
7.69047e-05
7.20353e-05
6.90706e-05
6.66278e-05
6.49571e-05
6.45162e-05
6.53976e-05
6.73467e-05
6.99382e-05
7.27159e-05
7.56524e-05
7.85995e-05
8.1387e-05
8.40114e-05
8.64817e-05
8.88861e-05
9.19746e-05
9.54445e-05
9.9185e-05
0.000102668
0.00010504
0.000105582
0.000103814
9.98495e-05
9.44121e-05
8.83493e-05
8.20072e-05
7.21548e-05
6.45147e-05
4.85729e-05
2.33416e-05
4.42415e-06
6.81647e-07
2.5429e-05
5.50419e-05
7.42313e-05
8.41133e-05
8.77183e-05
8.72306e-05
8.42354e-05
7.99894e-05
7.52031e-05
7.15358e-05
6.87982e-05
6.66151e-05
6.55891e-05
6.58878e-05
6.73313e-05
6.94472e-05
7.18924e-05
7.44514e-05
7.70125e-05
7.94348e-05
8.17141e-05
8.39477e-05
8.6233e-05
8.92614e-05
9.30827e-05
9.77162e-05
0.000102656
0.000106883
0.000108885
0.000107955
0.000104062
9.80716e-05
9.12345e-05
8.43968e-05
7.50008e-05
6.68909e-05
5.13719e-05
2.57626e-05
4.93689e-06
6.45763e-07
2.45609e-05
5.37197e-05
7.35391e-05
8.44049e-05
8.89971e-05
8.93792e-05
8.70527e-05
8.31968e-05
7.86724e-05
7.44982e-05
7.13518e-05
6.86919e-05
6.70398e-05
6.65487e-05
6.73702e-05
6.88294e-05
7.07419e-05
7.29665e-05
7.5147e-05
7.72165e-05
7.91878e-05
8.1185e-05
8.33563e-05
8.62138e-05
9.04891e-05
9.60887e-05
0.00010239
0.000108217
0.000111912
0.000111931
0.000108223
0.000101631
9.39623e-05
8.6383e-05
7.74947e-05
6.87044e-05
5.37792e-05
2.80514e-05
5.45801e-06
6.13262e-07
2.34599e-05
5.21576e-05
7.25157e-05
8.43586e-05
8.99906e-05
9.13342e-05
8.98041e-05
8.65019e-05
8.23119e-05
7.80471e-05
7.44156e-05
7.14822e-05
6.90705e-05
6.78889e-05
6.77801e-05
6.87232e-05
7.00812e-05
7.15092e-05
7.32296e-05
7.50201e-05
7.68125e-05
7.8769e-05
8.08933e-05
8.3956e-05
8.88754e-05
9.51527e-05
0.000102272
0.000109085
0.000114092
0.000115383
0.000112133
0.000105182
9.65906e-05
8.81302e-05
7.95459e-05
7.00294e-05
5.578e-05
3.0074e-05
5.98537e-06
5.81804e-07
2.21955e-05
5.03484e-05
7.1196e-05
8.4007e-05
9.07044e-05
9.30777e-05
9.24512e-05
8.98551e-05
8.61327e-05
8.20135e-05
7.81162e-05
7.48818e-05
7.21129e-05
7.00476e-05
6.90209e-05
6.90025e-05
6.98744e-05
7.10501e-05
7.23369e-05
7.36891e-05
7.52576e-05
7.72078e-05
7.9217e-05
8.24079e-05
8.76794e-05
9.45355e-05
0.000102642
0.000110724
0.000116763
0.000119064
0.000116139
0.000108665
9.89733e-05
8.96956e-05
8.10295e-05
7.11004e-05
5.74561e-05
3.19546e-05
6.52476e-06
5.50136e-07
2.08838e-05
4.83666e-05
6.95803e-05
8.3407e-05
9.11506e-05
9.4594e-05
9.49545e-05
9.31895e-05
9.00871e-05
8.63184e-05
8.24367e-05
7.88164e-05
7.61741e-05
7.34034e-05
7.15391e-05
7.05589e-05
7.03225e-05
7.09859e-05
7.2011e-05
7.32068e-05
7.46996e-05
7.66474e-05
7.86421e-05
8.21304e-05
8.77551e-05
9.50114e-05
0.000103766
0.000112711
0.000119784
0.000122756
0.000120029
0.000111905
0.000101069
9.08108e-05
8.1935e-05
7.18925e-05
5.8822e-05
3.36631e-05
7.07464e-06
5.18708e-07
1.96124e-05
4.63031e-05
6.77666e-05
8.2544e-05
9.13304e-05
9.5868e-05
9.72762e-05
9.6443e-05
9.40987e-05
9.08641e-05
8.72503e-05
8.35419e-05
8.06226e-05
7.78782e-05
7.54652e-05
7.38034e-05
7.28208e-05
7.24532e-05
7.27186e-05
7.35759e-05
7.50447e-05
7.7176e-05
7.94149e-05
8.32934e-05
8.91919e-05
9.67077e-05
0.000105787
0.000115188
0.000122892
0.000126344
0.000123633
0.000114967
0.000103015
9.14455e-05
8.24201e-05
7.24636e-05
5.99386e-05
3.52738e-05
7.63673e-06
4.88252e-07
1.84269e-05
4.4241e-05
6.58291e-05
8.14354e-05
9.12468e-05
9.68859e-05
9.93813e-05
9.95552e-05
9.80831e-05
9.5539e-05
9.2411e-05
8.90913e-05
8.57864e-05
8.32535e-05
8.06964e-05
7.85384e-05
7.70587e-05
7.61925e-05
7.59629e-05
7.64031e-05
7.76435e-05
7.98278e-05
8.21042e-05
8.60133e-05
9.20123e-05
9.95581e-05
0.000108653
0.00011825
0.000126169
0.000129672
0.000126875
0.000117703
0.000104609
9.20093e-05
8.22764e-05
7.28136e-05
6.08291e-05
3.67759e-05
8.20865e-06
4.59419e-07
1.73528e-05
4.22483e-05
6.38275e-05
8.00974e-05
9.09298e-05
9.76433e-05
0.00010124
0.000102471
0.000101957
0.000100226
9.77332e-05
9.48725e-05
9.17151e-05
8.89499e-05
8.67476e-05
8.45433e-05
8.2822e-05
8.16108e-05
8.10381e-05
8.11589e-05
8.21239e-05
8.42485e-05
8.64972e-05
9.01795e-05
9.60322e-05
0.000103419
0.000112389
0.000121717
0.000129225
0.000132618
0.000129807
0.000119981
0.000105737
9.20292e-05
8.18471e-05
7.30159e-05
6.15716e-05
3.81681e-05
8.78893e-06
4.32724e-07
1.64043e-05
4.03797e-05
6.1824e-05
7.85907e-05
9.03928e-05
9.81398e-05
0.00010283
0.000105142
0.000105644
0.000104818
0.000103085
0.000100808
9.82709e-05
9.55719e-05
9.31841e-05
9.12875e-05
8.94836e-05
8.83113e-05
8.75438e-05
8.74214e-05
8.81158e-05
9.00453e-05
9.21895e-05
9.5492e-05
0.000101
0.000108082
0.000116403
0.000124965
0.00013207
0.000135348
0.000132194
0.000121719
0.000106398
9.17015e-05
8.13676e-05
7.30073e-05
6.21629e-05
3.94743e-05
9.3745e-06
4.08509e-07
1.55886e-05
3.86777e-05
5.98806e-05
7.69897e-05
8.96627e-05
9.83862e-05
0.00010414
0.000107535
0.000109084
0.000109224
0.000108341
0.000106775
0.000104839
0.000102547
0.000100377
9.84019e-05
9.68622e-05
9.54305e-05
9.47568e-05
9.46318e-05
9.5131e-05
9.67055e-05
9.86985e-05
0.000101513
0.000106385
0.00011286
0.000120329
0.000128191
0.000134768
0.000137522
0.000133932
0.000122831
0.000106524
9.08967e-05
8.0065e-05
7.24426e-05
6.25963e-05
4.07482e-05
9.96064e-06
3.86956e-07
1.49085e-05
3.71748e-05
5.80571e-05
7.53752e-05
8.87875e-05
9.84118e-05
0.000105181
0.000109635
0.000112234
0.000113371
0.000113395
0.000112614
0.000111311
0.000109726
0.000107774
0.000106044
0.000104476
0.00010334
0.000102216
0.000101862
0.00010226
0.000103543
0.000105356
0.0001077
0.00011185
0.000117589
0.000124242
0.000131234
0.000136929
0.000138999
0.000134913
0.000123228
0.000106139
8.98439e-05
7.88137e-05
7.16985e-05
6.28493e-05
4.20079e-05
1.05419e-05
3.68156e-07
1.43652e-05
3.58962e-05
5.64112e-05
7.38327e-05
8.78364e-05
9.82702e-05
0.000105986
0.000111455
0.000115081
0.000117216
0.000118168
0.000118217
0.000117616
0.000116594
0.000115333
0.000113747
0.000112352
0.000111177
0.000110433
0.000109668
0.000109652
0.000110467
0.000111981
0.000113892
0.000117226
0.00012213
0.000127837
0.00013369
0.000138331
0.000139598
0.000135017
0.000122898
0.000105205
8.83281e-05
7.72593e-05
7.11766e-05
6.28922e-05
4.32505e-05
1.1112e-05
3.52139e-07
1.39601e-05
3.48641e-05
5.50004e-05
7.24535e-05
8.69013e-05
9.80431e-05
0.00010662
0.000113035
0.00011764
0.000120742
0.000122611
0.000123495
0.000123622
0.000123199
0.000122409
0.000121411
0.000120151
0.000118951
0.000118104
0.00011751
0.000117136
0.000117465
0.000118508
0.000119818
0.000122253
0.000126122
0.000130662
0.000135231
0.000138679
0.000139061
0.000134035
0.000121724
0.000103678
8.63034e-05
7.5181e-05
6.95081e-05
6.25935e-05
4.44721e-05
1.16653e-05
3.39054e-07
1.36994e-05
3.41033e-05
5.38873e-05
7.13374e-05
8.6097e-05
9.78403e-05
0.000107176
0.000114442
0.000119941
0.000123937
0.000126667
0.000128347
0.000129176
0.000129343
0.000129018
0.000128354
0.000127489
0.000126456
0.000125385
0.000124708
0.000124012
0.000123842
0.000124299
0.000125033
0.000126544
0.000129089
0.00013226
0.000135402
0.00013754
0.000136981
0.000131609
0.000119449
0.000101448
8.38502e-05
7.28557e-05
6.79155e-05
6.19112e-05
4.56669e-05
1.2197e-05
3.29048e-07
1.36042e-05
3.36546e-05
5.31516e-05
7.06006e-05
8.55575e-05
9.77831e-05
0.000107739
0.000115711
0.000121958
0.000126713
0.000130179
0.000132544
0.000133985
0.000134667
0.000134745
0.000134361
0.000133646
0.000132704
0.000131597
0.000130702
0.0001298
0.000129015
0.000128645
0.000128685
0.000129153
0.000130253
0.000131888
0.000133504
0.000134253
0.000132723
0.000127137
0.000115579
9.81695e-05
8.07549e-05
6.99335e-05
6.57487e-05
6.11321e-05
4.67729e-05
1.27033e-05
3.22459e-07
1.36818e-05
3.35729e-05
5.29017e-05
7.03772e-05
8.5399e-05
9.79084e-05
0.000108241
0.000116663
0.000123404
0.000128673
0.000132635
0.000135468
0.000137328
0.00013836
0.000138698
0.000138471
0.000137795
0.000136769
0.000135446
0.000134179
0.000132836
0.000131455
0.000130236
0.000129417
0.000128853
0.000128455
0.000128403
0.00012839
0.000127585
0.000124908
0.000118987
0.000108457
9.28969e-05
7.67814e-05
6.61899e-05
6.31846e-05
6.05346e-05
4.77102e-05
1.31859e-05
3.22355e-07
1.40904e-05
3.40193e-05
5.33238e-05
7.07632e-05
8.5499e-05
9.79033e-05
0.000108196
0.000116599
0.000123335
0.000128582
0.000132594
0.00013553
0.000137494
0.0001386
0.00013896
0.000138682
0.000137865
0.000136596
0.000134919
0.000133178
0.000131237
0.000129158
0.000127107
0.000125284
0.000123703
0.000121953
0.000120281
0.000118725
0.000116607
0.000113124
0.000107322
9.8123e-05
8.43927e-05
6.99974e-05
6.12605e-05
6.01636e-05
5.91808e-05
4.81815e-05
1.36527e-05
3.30812e-07
1.47352e-05
3.52234e-05
5.43486e-05
7.1081e-05
8.5311e-05
9.71674e-05
0.000106872
0.000114699
0.000120905
0.000125714
0.000129278
0.000131689
0.000133165
0.000133834
0.000133795
0.000133141
0.000131953
0.000130302
0.000128227
0.000125971
0.000123475
0.000120729
0.000117868
0.000114968
0.000112164
0.000109121
0.000106008
0.000103038
9.98002e-05
9.59508e-05
9.0886e-05
8.39962e-05
7.45396e-05
6.42162e-05
5.65987e-05
5.66703e-05
5.78592e-05
4.78015e-05
1.41328e-05
3.51197e-07
1.55214e-05
3.64324e-05
5.49233e-05
7.06209e-05
8.33013e-05
9.34268e-05
0.000101358
0.000107475
0.000112123
0.00011557
0.000117952
0.000119427
0.000120058
0.000119955
0.000119229
0.000117956
0.000116194
0.00011399
0.000111336
0.00010834
0.000105191
0.000101747
9.81828e-05
9.45977e-05
9.10443e-05
8.74211e-05
8.38931e-05
8.05868e-05
7.73207e-05
7.39369e-05
7.01377e-05
6.57377e-05
6.03688e-05
5.48453e-05
5.19734e-05
5.47477e-05
5.6624e-05
4.7278e-05
1.46783e-05
3.89461e-07
1.63294e-05
3.73045e-05
5.38492e-05
6.61154e-05
7.50201e-05
8.14442e-05
8.60189e-05
8.91933e-05
9.12817e-05
9.25088e-05
9.30384e-05
9.29902e-05
9.24312e-05
9.14092e-05
8.99667e-05
8.81465e-05
8.59922e-05
8.35458e-05
8.08668e-05
7.79948e-05
7.50361e-05
7.20059e-05
6.8979e-05
6.60321e-05
6.323e-05
6.05908e-05
5.81827e-05
5.60853e-05
5.42834e-05
5.2796e-05
5.14323e-05
5.02913e-05
4.88705e-05
4.76903e-05
4.79222e-05
5.1527e-05
5.41861e-05
4.56836e-05
1.50255e-05
4.45955e-07
1.74102e-05
3.57592e-05
4.58186e-05
5.15782e-05
5.49331e-05
5.67938e-05
5.77076e-05
5.80157e-05
5.79235e-05
5.75554e-05
5.69932e-05
5.62832e-05
5.54515e-05
5.451e-05
5.34694e-05
5.23413e-05
5.11445e-05
4.98987e-05
4.86396e-05
4.73881e-05
4.61836e-05
4.50555e-05
4.4041e-05
4.31653e-05
4.24723e-05
4.19797e-05
4.17251e-05
4.17309e-05
4.20447e-05
4.27444e-05
4.37298e-05
4.51545e-05
4.66065e-05
4.80433e-05
4.9563e-05
5.22611e-05
5.25768e-05
4.41897e-05
1.51779e-05
5.77018e-07
1.80462e-05
2.71459e-05
2.9214e-05
3.03231e-05
3.09882e-05
3.13856e-05
3.16547e-05
3.18813e-05
3.21096e-05
3.23569e-05
3.26325e-05
3.29366e-05
3.32694e-05
3.36271e-05
3.40095e-05
3.44144e-05
3.48466e-05
3.53082e-05
3.58113e-05
3.63598e-05
3.69682e-05
3.76398e-05
3.83958e-05
3.92342e-05
4.01802e-05
4.12298e-05
4.24137e-05
4.37073e-05
4.52282e-05
4.69823e-05
4.88754e-05
5.09442e-05
5.29492e-05
5.46146e-05
5.54795e-05
5.57377e-05
5.07823e-05
4.10601e-05
1.51416e-05
9.21694e-07
1.81133e-05
2.11104e-05
2.31206e-05
2.51576e-05
2.69529e-05
2.85954e-05
3.01268e-05
3.15627e-05
3.29162e-05
3.42015e-05
3.54331e-05
3.6622e-05
3.77768e-05
3.89031e-05
4.00061e-05
4.10893e-05
4.21578e-05
4.32143e-05
4.42639e-05
4.53089e-05
4.63546e-05
4.74018e-05
4.84554e-05
4.95181e-05
5.05893e-05
5.16836e-05
5.27745e-05
5.39236e-05
5.50103e-05
5.6136e-05
5.71889e-05
5.83109e-05
5.94643e-05
5.98488e-05
5.89683e-05
5.5995e-05
4.84151e-05
3.51135e-05
1.41219e-05
6.44734e-07
1.16651e-06
1.88512e-06
2.59911e-06
3.27547e-06
3.89527e-06
4.47094e-06
5.01734e-06
5.54593e-06
6.05983e-06
6.56284e-06
7.05266e-06
7.53427e-06
8.00301e-06
8.46735e-06
8.91832e-06
9.36942e-06
9.80492e-06
1.02464e-05
1.06687e-05
1.11044e-05
1.15153e-05
1.19495e-05
1.23517e-05
1.27888e-05
1.31855e-05
1.3629e-05
1.4024e-05
1.44737e-05
1.48698e-05
1.53083e-05
1.56834e-05
1.60519e-05
1.63711e-05
1.65975e-05
1.69229e-05
1.69079e-05
1.66413e-05
1.57929e-05
1.29346e-05
)
;

boundaryField
{
    movingWall
    {
        type            nutkWallFunction;
        Cmu             0.09;
        kappa           0.41;
        E               9.8;
        value           uniform 0;
    }
    fixedWalls
    {
        type            nutkWallFunction;
        Cmu             0.09;
        kappa           0.41;
        E               9.8;
        value           uniform 0;
    }
    frontAndBack
    {
        type            empty;
    }
}


// ************************************************************************* //
