/*--------------------------------*- C++ -*----------------------------------*\
  =========                 |
  \\      /  F ield         | OpenFOAM: The Open Source CFD Toolbox
   \\    /   O peration     | Website:  https://openfoam.org
    \\  /    A nd           | Version:  12
     \\/     M anipulation  |
\*---------------------------------------------------------------------------*/
FoamFile
{
    format      ascii;
    class       volScalarField;
    location    "2";
    object      p;
}
// * * * * * * * * * * * * * * * * * * * * * * * * * * * * * * * * * * * * * //

dimensions      [0 2 -2 0 0 0 0];

internalField   nonuniform List<scalar> 
1600
(
6.31076e-08
-1.72859e-05
-5.24669e-05
-9.9478e-05
-0.000158583
-0.000231949
-0.000322144
-0.000431499
-0.000562436
-0.000715057
-0.00088749
-0.00107511
-0.00127005
-0.0014592
-0.00162487
-0.00175758
-0.00186135
-0.00195118
-0.00204558
-0.00214586
-0.00222697
-0.00224644
-0.00215809
-0.00191524
-0.00147711
-0.000840247
-2.33083e-05
0.000944281
0.00198992
0.00301585
0.00389444
0.00450622
0.00477977
0.00472615
0.00441492
0.0040941
0.00384851
0.00372189
0.00367939
0.00366955
1.6187e-05
-1.85622e-06
-3.23616e-05
-7.45818e-05
-0.000128832
-0.000197779
-0.0002841
-0.00038992
-0.000516874
-0.000664191
-0.000827922
-0.00100137
-0.0011786
-0.00135735
-0.00153613
-0.00170748
-0.00186689
-0.00201947
-0.00217143
-0.00231915
-0.00244001
-0.00249489
-0.00243809
-0.00222423
-0.00182218
-0.00123346
-0.000459476
0.000465488
0.00148239
0.00250077
0.00340588
0.00408098
0.00443751
0.00446099
0.00423599
0.00394228
0.00373692
0.00365183
0.0036332
0.0036355
5.22956e-05
2.88826e-05
-2.38787e-06
-4.08257e-05
-8.86417e-05
-0.000150095
-0.000228095
-0.000324984
-0.000442726
-0.000581772
-0.000739988
-0.000913361
-0.00109926
-0.00129904
-0.00151642
-0.00175199
-0.00200156
-0.00225938
-0.00251611
-0.00275453
-0.00294616
-0.00305373
-0.00303801
-0.00286229
-0.0025044
-0.00196889
-0.0012521
-0.000376119
0.000611316
0.00163602
0.0026023
0.0033996
0.00392009
0.00411314
0.00402979
0.0038167
0.00363395
0.00355953
0.00355718
0.00356197
0.000100516
6.97488e-05
3.22408e-05
-5.56484e-06
-4.72286e-05
-0.000100035
-0.000168138
-0.000255133
-0.000365013
-0.000501264
-0.000665486
-0.000858317
-0.00108243
-0.0013432
-0.00164515
-0.00198645
-0.00235713
-0.00274183
-0.00312009
-0.00346397
-0.00373814
-0.00390499
-0.00393644
-0.00381024
-0.00351248
-0.00302857
-0.00236474
-0.00154262
-0.000596693
0.000422265
0.00143892
0.00235764
0.00308517
0.00354337
0.00370838
0.00366521
0.00356556
0.00347961
0.00347101
0.00346773
0.000150686
0.000108629
5.9444e-05
1.74226e-05
-2.16596e-05
-6.88264e-05
-0.000130376
-0.000212313
-0.000321989
-0.000467054
-0.000654119
-0.000889498
-0.00118039
-0.00153392
-0.00195127
-0.00242328
-0.00293172
-0.00345031
-0.00394808
-0.00439012
-0.00473845
-0.00496502
-0.00504954
-0.00497566
-0.00473063
-0.00430493
-0.00370518
-0.00295237
-0.00207121
-0.00109289
-6.64569e-05
0.000944549
0.00186686
0.00261638
0.00312681
0.00338613
0.00346632
0.0034385
0.00339334
0.00336825
0.000184741
0.000130988
6.66842e-05
1.65332e-05
-2.41539e-05
-7.0487e-05
-0.000131453
-0.000216129
-0.000335923
-0.00050335
-0.000730405
-0.00102849
-0.00140739
-0.0018726
-0.00241998
-0.00303167
-0.00367824
-0.00432325
-0.00492777
-0.00545325
-0.00587088
-0.00616305
-0.00630485
-0.0062762
-0.00607103
-0.0056928
-0.00515283
-0.00446339
-0.00364252
-0.00271584
-0.00171374
-0.000671817
0.000371586
0.00136035
0.00221234
0.00284729
0.00322435
0.00338897
0.00331394
0.00325463
0.000189832
0.000123888
4.27852e-05
-1.84111e-05
-6.49057e-05
-0.000115869
-0.000183216
-0.000279297
-0.000419695
-0.000621878
-0.000903022
-0.00127779
-0.00175664
-0.00234209
-0.00302264
-0.00377043
-0.00454512
-0.00530298
-0.00600045
-0.00660053
-0.00707702
-0.00740645
-0.00757234
-0.00756992
-0.00740018
-0.00706698
-0.0065819
-0.00595641
-0.00520369
-0.00433834
-0.00337542
-0.00233114
-0.00122694
-9.77883e-05
0.00100759
0.00199732
0.00274617
0.00318067
0.0032417
0.00311156
0.000154588
7.72502e-05
-2.05926e-05
-9.48519e-05
-0.000151062
-0.000211983
-0.00029241
-0.000407815
-0.000577676
-0.000824063
-0.00116822
-0.00162676
-0.00220945
-0.00291384
-0.0037203
-0.00459073
-0.00547527
-0.00632409
-0.00709157
-0.00774158
-0.00824903
-0.00859664
-0.00877611
-0.00878832
-0.00863884
-0.00833604
-0.00789171
-0.00731787
-0.00662565
-0.00582375
-0.00491784
-0.00391092
-0.00280571
-0.00161037
-0.000351347
0.0008977
0.00199458
0.00276988
0.00314588
0.00292519
7.19145e-05
-1.48792e-05
-0.000127947
-0.000216349
-0.000285557
-0.000361011
-0.00046009
-0.00060096
-0.000806339
-0.00110212
-0.00151268
-0.00205522
-0.00273729
-0.00355125
-0.00446896
-0.00544167
-0.00641239
-0.00732724
-0.00814091
-0.00881943
-0.00934128
-0.0096954
-0.00987907
-0.00989665
-0.0097569
-0.00947161
-0.0090542
-0.0085177
-0.00787274
-0.00712553
-0.00627662
-0.00532145
-0.00425164
-0.00305692
-0.00173713
-0.000333049
0.00102953
0.002149
0.00279067
0.00261624
-6.05602e-05
-0.00015391
-0.000279627
-0.00038229
-0.000466849
-0.000560248
-0.000681883
-0.000851917
-0.00109534
-0.00144137
-0.00191638
-0.00253673
-0.00330748
-0.00421545
-0.00522393
-0.00627582
-0.00730889
-0.00826778
-0.00910908
-0.0098017
-0.0103281
-0.0106816
-0.0108631
-0.0108798
-0.0107428
-0.0104662
-0.0100653
-0.00955468
-0.00894564
-0.00824427
-0.00744942
-0.0065522
-0.00553715
-0.00438249
-0.00306521
-0.00159135
-6.75452e-05
0.00129509
0.00221628
0.00257515
-0.000240373
-0.000337168
-0.000472075
-0.000588167
-0.000689192
-0.00080239
-0.000948435
-0.00114876
-0.00142984
-0.00182324
-0.00235574
-0.0030428
-0.00388646
-0.00486846
-0.00594515
-0.00705361
-0.00812829
-0.00911424
-0.00997032
-0.0106683
-0.0111939
-0.0115433
-0.0117196
-0.0117317
-0.0115928
-0.0113187
-0.0109266
-0.0104327
-0.00985002
-0.00918573
-0.00843932
-0.00760115
-0.0066527
-0.00556674
-0.00430536
-0.00284175
-0.00124976
0.000243262
0.00148134
0.00231202
-0.000460947
-0.000558469
-0.000698591
-0.000826216
-0.000943532
-0.00107695
-0.00124762
-0.0014774
-0.00179326
-0.00222737
-0.00280662
-0.0035458
-0.0044428
-0.00547685
-0.00659953
-0.00774432
-0.00884403
-0.0098448
-0.0107075
-0.0114064
-0.0119291
-0.0122733
-0.0124435
-0.0124498
-0.0123064
-0.0120309
-0.0116423
-0.0111587
-0.0105951
-0.00996084
-0.00925717
-0.0084756
-0.00759736
-0.00659415
-0.00542457
-0.00404299
-0.00246178
-0.000933657
0.000429928
0.00142533
-0.000713336
-0.00080919
-0.000950872
-0.00108777
-0.00122032
-0.00137303
-0.00156679
-0.0018232
-0.00216828
-0.00263324
-0.00324631
-0.00402174
-0.00494901
-0.00601384
-0.00716189
-0.00832543
-0.00943708
-0.010444
-0.0113084
-0.012006
-0.0125255
-0.0128652
-0.0130299
-0.0130303
-0.0128817
-0.0126029
-0.0122149
-0.0117378
-0.0111889
-0.0105798
-0.00991437
-0.00918646
-0.00837897
-0.00746424
-0.00640358
-0.00514418
-0.00366089
-0.00215373
-0.000846874
0.000105108
-0.000987744
-0.0010796
-0.00121958
-0.00136314
-0.00150886
-0.0016785
-0.00189199
-0.0021699
-0.00253644
-0.0030211
-0.00365311
-0.0044493
-0.00538731
-0.00645953
-0.00761429
-0.00878104
-0.00989376
-0.0109
-0.0117628
-0.0124583
-0.0129753
-0.0133118
-0.0134724
-0.013468
-0.0133147
-0.0130326
-0.0126444
-0.0121725
-0.0116364
-0.0110499
-0.0104195
-0.00974198
-0.00900331
-0.00817814
-0.00723218
-0.00611598
-0.00479392
-0.00336037
-0.00219409
-0.00137472
-0.00127335
-0.00135925
-0.00149447
-0.00164145
-0.00179712
-0.00198012
-0.00220873
-0.00250202
-0.00288222
-0.00337596
-0.00401158
-0.00480709
-0.00574463
-0.00680427
-0.00794587
-0.00910102
-0.0102047
-0.0112041
-0.0120622
-0.0127549
-0.0132702
-0.0136049
-0.0137634
-0.0137561
-0.0135997
-0.0133157
-0.0129286
-0.0124629
-0.01194
-0.0113758
-0.0107788
-0.010149
-0.00947568
-0.00873738
-0.00790414
-0.00693487
-0.00578952
-0.00449697
-0.00348821
-0.00281563
-0.0015598
-0.0016383
-0.001766
-0.00191288
-0.00207494
-0.00226733
-0.00250618
-0.00280867
-0.00319488
-0.00368796
-0.00431352
-0.00508876
-0.00600946
-0.00704142
-0.00815192
-0.00928108
-0.0103649
-0.0113507
-0.0122003
-0.0128887
-0.0134023
-0.0137366
-0.0138949
-0.0138873
-0.0137306
-0.0134476
-0.0130646
-0.0126082
-0.0121012
-0.0115608
-0.0109974
-0.0104131
-0.00980098
-0.00914357
-0.00841425
-0.00757986
-0.00660431
-0.00550819
-0.00464603
-0.00409059
-0.00183815
-0.00190856
-0.00202657
-0.00217027
-0.002335
-0.00253246
-0.00277643
-0.00308197
-0.00346675
-0.00395042
-0.0045553
-0.00529757
-0.00617988
-0.00716835
-0.00823343
-0.00932234
-0.0103748
-0.0113386
-0.0121745
-0.0128555
-0.0133663
-0.0137008
-0.0138608
-0.0138558
-0.0137026
-0.0134251
-0.0130512
-0.0126087
-0.0121221
-0.011609
-0.0110804
-0.0105405
-0.00998517
-0.00940132
-0.00876568
-0.00805094
-0.00722724
-0.00632785
-0.00561154
-0.00515001
-0.0021036
-0.00216281
-0.00227003
-0.00240777
-0.00257146
-0.00276965
-0.00301369
-0.00331639
-0.00369286
-0.00415975
-0.00473567
-0.00543542
-0.00626285
-0.00719262
-0.00819791
-0.00923258
-0.0102411
-0.0111728
-0.0119875
-0.0126564
-0.013162
-0.0134961
-0.0136593
-0.0136602
-0.0135152
-0.0132492
-0.0128909
-0.012468
-0.0120078
-0.0115267
-0.0110355
-0.010539
-0.010036
-0.00951767
-0.00896515
-0.00835542
-0.00766498
-0.00693566
-0.00635207
-0.00597057
-0.00234878
-0.0023974
-0.00249263
-0.00262137
-0.00278036
-0.00297512
-0.00321456
-0.00350921
-0.00387159
-0.0043156
-0.0048561
-0.00550621
-0.00626916
-0.00712835
-0.00806085
-0.0090275
-0.00997885
-0.0108668
-0.0116509
-0.0123009
-0.0127969
-0.0131291
-0.0132963
-0.0133063
-0.0131746
-0.0129265
-0.0125909
-0.0121966
-0.0117687
-0.0113242
-0.0108729
-0.0104195
-0.00996472
-0.00950398
-0.00902357
-0.00850459
-0.00792882
-0.00733613
-0.00687158
-0.00655904
-0.00256691
-0.00260763
-0.00268976
-0.00280823
-0.00295963
-0.00314732
-0.00337811
-0.00366037
-0.00400411
-0.00442062
-0.00492159
-0.00551729
-0.00621137
-0.0069931
-0.00784349
-0.00873061
-0.00961207
-0.0104439
-0.0111866
-0.0118092
-0.01229
-0.0126172
-0.0127885
-0.01281
-0.012697
-0.0124736
-0.0121683
-0.0118091
-0.0114198
-0.0110163
-0.010607
-0.0101959
-0.00978491
-0.00937469
-0.0089549
-0.00851124
-0.00803049
-0.00754949
-0.00718274
-0.00693011
-0.0027592
-0.00279187
-0.00286122
-0.00296771
-0.00310892
-0.00328652
-0.00350538
-0.0037719
-0.00409385
-0.00448001
-0.00493933
-0.00547951
-0.00610374
-0.00680557
-0.00756935
-0.00836968
-0.00917153
-0.00993627
-0.0106271
-0.0112132
-0.0116721
-0.0119907
-0.012165
-0.0121997
-0.0121095
-0.0119166
-0.0116476
-0.0113289
-0.0109825
-0.0106225
-0.0102558
-0.00988551
-0.00951451
-0.00914574
-0.00877703
-0.00839469
-0.00799164
-0.00760088
-0.00731276
-0.00710992
-0.00292743
-0.00295135
-0.0030075
-0.00310054
-0.0032294
-0.00339442
-0.00359876
-0.00384711
-0.00414531
-0.00449993
-0.00491754
-0.00540372
-0.00596051
-0.00658393
-0.0072617
-0.00797335
-0.00869082
-0.00938134
-0.0100121
-0.010554
-0.0109847
-0.0112904
-0.011466
-0.0115147
-0.0114492
-0.0112896
-0.0110601
-0.0107844
-0.0104822
-0.0101658
-0.00984036
-0.0095079
-0.00917175
-0.00883778
-0.00850862
-0.00817588
-0.00783573
-0.00751738
-0.00728761
-0.00712391
-0.00307099
-0.00308658
-0.00312951
-0.00320821
-0.00332308
-0.00347361
-0.00366154
-0.00389014
-0.00416364
-0.00448678
-0.00486418
-0.00529953
-0.00579394
-0.00634404
-0.00694059
-0.00756709
-0.00820111
-0.00881556
-0.0093822
-0.00987505
-0.010273
-0.0105622
-0.0107365
-0.0107981
-0.0107568
-0.0106303
-0.0104397
-0.010206
-0.00994616
-0.00967046
-0.0093827
-0.00908389
-0.00877709
-0.00847025
-0.00817105
-0.00787656
-0.00758599
-0.00732376
-0.00714109
-0.00700029
-0.00319085
-0.00319873
-0.00322886
-0.00329281
-0.00339256
-0.00352719
-0.00369745
-0.00390545
-0.00415413
-0.00444675
-0.0047864
-0.00517523
-0.00561354
-0.00609808
-0.00662131
-0.0071701
-0.00772641
-0.00826822
-0.0087718
-0.00921459
-0.00957762
-0.00984753
-0.0100179
-0.0100894
-0.0100697
-0.0099731
-0.00981793
-0.00962197
-0.00939961
-0.00915938
-0.00890418
-0.00863386
-0.00835056
-0.00806369
-0.00778546
-0.00751874
-0.00726376
-0.00703893
-0.00690098
-0.00676513
-0.00328902
-0.0032898
-0.00330773
-0.00335687
-0.00344075
-0.00355853
-0.00371035
-0.00389747
-0.00412181
-0.00438551
-0.00469047
-0.0050377
-0.00542665
-0.00585419
-0.00631373
-0.00679467
-0.00728219
-0.00775845
-0.00820382
-0.00859906
-0.0089276
-0.00917725
-0.00934132
-0.00941918
-0.00941656
-0.00934533
-0.00922
-0.0090555
-0.00886395
-0.00865278
-0.00842394
-0.00817606
-0.00791032
-0.00763719
-0.00737308
-0.0071247
-0.00689211
-0.00668903
-0.00658852
-0.00644532
-0.00336777
-0.0033621
-0.00336857
-0.00340307
-0.00347066
-0.00357098
-0.00370397
-0.00387034
-0.00407123
-0.00430797
-0.00458154
-0.00489213
-0.00523853
-0.00561756
-0.00602329
-0.00644678
-0.00687578
-0.00729557
-0.00768999
-0.00804274
-0.00833933
-0.00856909
-0.00872551
-0.0088067
-0.00881705
-0.00876531
-0.00866331
-0.00852339
-0.00835577
-0.00816671
-0.00795743
-0.00772578
-0.00747199
-0.00720691
-0.00695006
-0.00671175
-0.0064915
-0.0062953
-0.00622759
-0.0060611
-0.00342956
-0.00341813
-0.00341391
-0.00343406
-0.00348517
-0.00356769
-0.00368174
-0.00382773
-0.00400632
-0.00421823
-0.00446377
-0.00474249
-0.00505272
-0.0053911
-0.00575225
-0.00612833
-0.00650898
-0.00688174
-0.00723316
-0.00754967
-0.00781852
-0.00803083
-0.00817885
-0.00826074
-0.00827995
-0.00824273
-0.00815824
-0.00803654
-0.00788617
-0.00771242
-0.00751622
-0.00729509
-0.00704839
-0.00678664
-0.00653125
-0.00629556
-0.0060784
-0.00587314
-0.00583651
-0.00562782
-0.00347693
-0.00346042
-0.00344625
-0.00345237
-0.00348692
-0.00355147
-0.00364664
-0.00377284
-0.00393042
-0.00411967
-0.00434042
-0.00459173
-0.00487156
-0.00517643
-0.00550118
-0.00583879
-0.00618033
-0.00651513
-0.00683147
-0.00711794
-0.00736412
-0.00756044
-0.00770003
-0.00778222
-0.0078077
-0.0077811
-0.00770936
-0.00760047
-0.00746155
-0.00729724
-0.00710851
-0.00689297
-0.00664946
-0.00638782
-0.00613003
-0.00589069
-0.00566545
-0.00543164
-0.00542584
-0.00514396
-0.00351247
-0.00349155
-0.00346802
-0.00346032
-0.00347824
-0.00352475
-0.00360123
-0.00370832
-0.00384624
-0.004015
-0.00421403
-0.004442
-0.00469653
-0.00497406
-0.00526956
-0.00557651
-0.00588691
-0.00619152
-0.00648016
-0.00674253
-0.00696941
-0.00715265
-0.00728665
-0.00736848
-0.00739835
-0.0073796
-0.0073171
-0.00721692
-0.00708502
-0.00692553
-0.00673965
-0.00652548
-0.00628173
-0.00601715
-0.00575325
-0.00550432
-0.00526429
-0.00498164
-0.0049903
-0.00458552
-0.00353896
-0.00351414
-0.00348156
-0.00346001
-0.00346112
-0.00348953
-0.00354759
-0.00363632
-0.00375597
-0.00390631
-0.00408647
-0.00429474
-0.00452847
-0.00478394
-0.00505621
-0.00533911
-0.00562525
-0.00590632
-0.0061734
-0.00641727
-0.00662951
-0.00680301
-0.0069324
-0.00701405
-0.00704754
-0.00703498
-0.00697952
-0.00688546
-0.0067577
-0.00659986
-0.00641336
-0.00619707
-0.00594992
-0.00567938
-0.00540548
-0.00514136
-0.00488057
-0.00451205
-0.00450952
-0.00390102
-0.00355921
-0.00353081
-0.00348907
-0.0034533
-0.00343721
-0.00344742
-0.00348733
-0.00355845
-0.00366112
-0.00379496
-0.00395879
-0.00415055
-0.00436731
-0.00460519
-0.00485925
-0.00512355
-0.00539116
-0.00565444
-0.00590527
-0.00613541
-0.0063371
-0.00650379
-0.00663025
-0.0067128
-0.00675013
-0.00674324
-0.0066939
-0.00660497
-0.00648015
-0.00632241
-0.00613326
-0.00591234
-0.00565891
-0.00537908
-0.00509096
-0.00480626
-0.00451524
-0.00398988
-0.00396137
-0.0030283
-0.00357669
-0.00354453
-0.00349274
-0.00344184
-0.00340789
-0.00339957
-0.00342143
-0.00347548
-0.00356221
-0.00368108
-0.00383059
-0.00400842
-0.00421135
-0.0044353
-0.00467531
-0.00492553
-0.00517938
-0.00542968
-0.00566895
-0.00588967
-0.00608465
-0.00624765
-0.00637353
-0.00645858
-0.00650091
-0.00650046
-0.00645778
-0.00637447
-0.00625292
-0.00609522
-0.00590258
-0.00567521
-0.0054128
-0.00511979
-0.00481089
-0.00449443
-0.00414776
-0.00339762
-0.00335673
-0.00191856
-0.00359472
-0.00355867
-0.00349492
-0.00342722
-0.0033741
-0.00334646
-0.00334997
-0.00338712
-0.00345852
-0.00356343
-0.0037001
-0.00386591
-0.00405737
-0.00427023
-0.00449948
-0.00473936
-0.0049835
-0.00522505
-0.00545699
-0.00567235
-0.00586443
-0.00602735
-0.00615597
-0.00624561
-0.00629499
-0.00630311
-0.00626903
-0.00619328
-0.00607688
-0.0059206
-0.00572483
-0.00548944
-0.00521365
-0.00489946
-0.00455898
-0.00419043
-0.0037345
-0.00272972
-0.00272394
-0.000542865
-0.00361829
-0.00357673
-0.00349826
-0.00341062
-0.00333597
-0.00328721
-0.00327109
-0.00329057
-0.00334633
-0.00343747
-0.00356197
-0.00371694
-0.00389865
-0.00410268
-0.00432393
-0.00455673
-0.00479487
-0.00503165
-0.00526039
-0.00547452
-0.00566767
-0.00583406
-0.00596885
-0.00606769
-0.00612794
-0.00614762
-0.00612542
-0.00606067
-0.00595279
-0.00580079
-0.00560331
-0.00535852
-0.00506437
-0.00471834
-0.00432531
-0.00386289
-0.00323855
-0.0019529
-0.00191702
0.00118549
-0.00365909
-0.00360551
-0.00350706
-0.00339138
-0.00329007
-0.00321561
-0.00317582
-0.0031744
-0.00321225
-0.00328833
-0.00340034
-0.00354499
-0.00371832
-0.0039157
-0.00413192
-0.00436131
-0.00459776
-0.00483452
-0.00506506
-0.00528312
-0.00548259
-0.00565783
-0.00580382
-0.00591641
-0.00599182
-0.00602746
-0.00602132
-0.00597126
-0.00587524
-0.00573017
-0.00553224
-0.00527529
-0.00495394
-0.00455587
-0.00407181
-0.0034424
-0.00255528
-0.000938499
-0.000424132
0.00365994
-0.00373956
-0.00366116
-0.0035244
-0.00336844
-0.00322546
-0.00311409
-0.00304227
-0.00301441
-0.00303131
-0.00309134
-0.00319144
-0.00332773
-0.0034957
-0.00369039
-0.00390634
-0.00413781
-0.00437884
-0.00462306
-0.00486318
-0.00509246
-0.00530471
-0.00549415
-0.0056561
-0.00578633
-0.00588021
-0.005934
-0.00594498
-0.00590992
-0.00582528
-0.00568532
-0.00548292
-0.00520523
-0.00483707
-0.00434274
-0.00368745
-0.00274405
-0.00138832
0.000877536
0.00248139
0.0082149
-0.00390204
-0.00375855
-0.00353843
-0.00330986
-0.00310996
-0.0029578
-0.002858
-0.00281063
-0.00281424
-0.00286586
-0.00296143
-0.00309636
-0.00326563
-0.00346391
-0.0036855
-0.00392433
-0.00417388
-0.00442787
-0.00467988
-0.0049231
-0.00515085
-0.0053569
-0.00553594
-0.00568313
-0.00579364
-0.00586294
-0.00588736
-0.00586228
-0.00578269
-0.00563865
-0.00541799
-0.0050949
-0.0046396
-0.00397015
-0.00300439
-0.00149223
0.000722484
0.00434656
0.00827719
0.0176272
-0.00427945
-0.00396116
-0.00360378
-0.00326988
-0.00300757
-0.0028178
-0.00269366
-0.00263288
-0.00263057
-0.00268117
-0.0027789
-0.00291811
-0.00309319
-0.00329847
-0.00352801
-0.00377555
-0.00403439
-0.00429784
-0.00455966
-0.00481324
-0.00505188
-0.00526899
-0.00545875
-0.00561561
-0.00573461
-0.00581052
-0.00583892
-0.00581346
-0.00572761
-0.00556514
-0.00530791
-0.00491091
-0.00432054
-0.00338824
-0.00196444
0.000411958
0.00405246
0.0102824
0.0187465
0.0348108
-0.00517628
-0.00417743
-0.00357817
-0.00316328
-0.00286412
-0.00265201
-0.00251649
-0.00245212
-0.00245111
-0.00250543
-0.00260797
-0.00275261
-0.00293349
-0.00314481
-0.00338043
-0.00363404
-0.00389897
-0.00416837
-0.00443573
-0.00469427
-0.00493746
-0.00515847
-0.00535164
-0.00551076
-0.00563136
-0.00570695
-0.0057333
-0.00570059
-0.00560047
-0.00541199
-0.0051141
-0.00464929
-0.00393407
-0.00278605
-0.000888468
0.00253191
0.008249
0.0186242
0.0343048
0.0597845
-0.00683512
-0.00304542
-0.00225606
-0.00210154
-0.00194159
-0.00178454
-0.00168904
-0.00167045
-0.00171722
-0.0018145
-0.00195292
-0.00212723
-0.00233341
-0.00256682
-0.00282203
-0.003093
-0.00337337
-0.00365667
-0.00393626
-0.00420585
-0.00445871
-0.00468899
-0.00489013
-0.00505744
-0.00518453
-0.00526754
-0.00529823
-0.00527049
-0.00516738
-0.0049703
-0.00463541
-0.0041114
-0.00330807
-0.00209484
3.78008e-05
0.00428346
0.0127493
0.0278965
0.0522052
0.0838239
)
;

boundaryField
{
    movingWall
    {
        type            zeroGradient;
    }
    fixedWalls
    {
        type            zeroGradient;
    }
    frontAndBack
    {
        type            empty;
    }
}


// ************************************************************************* //
