/*--------------------------------*- C++ -*----------------------------------*\
  =========                 |
  \\      /  F ield         | OpenFOAM: The Open Source CFD Toolbox
   \\    /   O peration     | Website:  https://openfoam.org
    \\  /    A nd           | Version:  12
     \\/     M anipulation  |
\*---------------------------------------------------------------------------*/
FoamFile
{
    format      ascii;
    class       surfaceScalarField;
    location    "2";
    object      phi;
}
// * * * * * * * * * * * * * * * * * * * * * * * * * * * * * * * * * * * * * //

dimensions      [0 3 -1 0 0 0 0];

internalField   nonuniform List<scalar> 
3120
(
2.27045e-08
-2.27105e-08
3.8447e-08
-1.57428e-08
3.88285e-08
-3.81863e-10
3.05604e-08
8.26776e-09
1.91986e-08
1.13615e-08
8.09559e-09
1.11028e-08
-1.56295e-09
9.65837e-09
-9.77686e-09
8.21377e-09
-1.81247e-08
8.34769e-09
-3.00509e-08
1.19261e-08
-5.10346e-08
2.09837e-08
-8.80385e-08
3.70037e-08
-1.4915e-07
6.11113e-08
-2.44372e-07
9.52225e-08
-3.84437e-07
1.40065e-07
-5.75461e-07
1.91024e-07
-8.14386e-07
2.38925e-07
-1.08746e-06
2.73076e-07
-1.37265e-06
2.85186e-07
-1.64668e-06
2.74036e-07
-1.89079e-06
2.44105e-07
-2.09162e-06
2.00828e-07
-2.23989e-06
1.48271e-07
-2.32972e-06
8.9828e-08
-2.36037e-06
3.06513e-08
-2.32266e-06
-3.77049e-08
-2.21917e-06
-1.03496e-07
-2.04556e-06
-1.73608e-07
-1.80305e-06
-2.42503e-07
-1.49491e-06
-3.08144e-07
-1.13223e-06
-3.62683e-07
-7.36443e-07
-3.95785e-07
-3.46157e-07
-3.90286e-07
-1.50178e-08
-3.31139e-07
2.141e-07
-2.29118e-07
2.95609e-07
-8.15093e-08
2.56442e-07
3.91672e-08
1.6396e-07
9.24826e-08
6.59181e-08
9.80414e-08
6.59181e-08
1.36516e-08
-3.63622e-08
4.68652e-09
-6.77794e-09
-2.78441e-08
3.21485e-08
-7.61461e-08
5.65694e-08
-1.32434e-07
6.76489e-08
-1.92563e-07
7.1232e-08
-2.55106e-07
7.22013e-08
-3.21441e-07
7.45487e-08
-3.95868e-07
8.27744e-08
-4.86069e-07
1.02127e-07
-6.026e-07
1.37514e-07
-7.56722e-07
1.91126e-07
-9.56348e-07
2.60738e-07
-1.20132e-06
3.40192e-07
-1.48175e-06
4.20498e-07
-1.78126e-06
4.90534e-07
-2.08125e-06
5.3891e-07
-2.36537e-06
5.57199e-07
-2.62277e-06
5.42583e-07
-2.84645e-06
4.97721e-07
-3.03063e-06
4.28279e-07
-3.16995e-06
3.4015e-07
-3.26052e-06
2.38838e-07
-3.29902e-06
1.28327e-07
-3.2785e-06
1.01361e-08
-3.20188e-06
-1.14323e-07
-3.063e-06
-2.42381e-07
-2.86176e-06
-3.74847e-07
-2.59609e-06
-5.08175e-07
-2.26774e-06
-6.36491e-07
-1.88107e-06
-7.4935e-07
-1.44612e-06
-8.30739e-07
-9.82614e-07
-8.53792e-07
-5.26047e-07
-7.87706e-07
-1.4384e-07
-6.11325e-07
1.08595e-07
-3.33943e-07
1.9139e-07
-4.36283e-08
1.59023e-07
1.2485e-07
7.50098e-08
1.82054e-07
1.40928e-07
-1.21707e-08
-2.41913e-08
-5.61182e-08
3.71695e-08
-1.21379e-07
9.74087e-08
-1.99602e-07
1.34793e-07
-2.86824e-07
1.54871e-07
-3.81334e-07
1.65742e-07
-4.83663e-07
1.74531e-07
-5.97047e-07
1.87932e-07
-7.27654e-07
2.13382e-07
-8.83859e-07
2.58332e-07
-1.07354e-06
3.272e-07
-1.3004e-06
4.17981e-07
-1.56149e-06
5.2183e-07
-1.84723e-06
6.25927e-07
-2.14345e-06
7.16717e-07
-2.43466e-06
7.81744e-07
-2.70775e-06
8.12009e-07
-2.95456e-06
8.04009e-07
-3.17047e-06
7.58494e-07
-3.35224e-06
6.79488e-07
-3.49754e-06
5.73578e-07
-3.60451e-06
4.4712e-07
-3.67151e-06
3.05832e-07
-3.69746e-06
1.54278e-07
-3.67712e-06
-1.01987e-08
-3.61391e-06
-1.77538e-07
-3.50048e-06
-3.55808e-07
-3.33417e-06
-5.41158e-07
-3.11129e-06
-7.3105e-07
-2.82863e-06
-9.19155e-07
-2.48481e-06
-1.09317e-06
-2.08124e-06
-1.23431e-06
-1.62347e-06
-1.31156e-06
-1.12372e-06
-1.28746e-06
-6.23851e-07
-1.11119e-06
-2.07817e-07
-7.49977e-07
2.45086e-08
-2.75954e-07
7.80598e-08
7.12988e-08
4.71806e-08
2.12933e-07
1.88108e-07
-3.9169e-08
1.49777e-08
-1.13681e-07
1.11681e-07
-2.03364e-07
1.87092e-07
-3.034e-07
2.34828e-07
-4.13179e-07
2.6465e-07
-5.33266e-07
2.85828e-07
-6.65727e-07
3.06991e-07
-8.14668e-07
3.36873e-07
-9.85981e-07
3.84695e-07
-1.18558e-06
4.57927e-07
-1.41626e-06
5.57878e-07
-1.67531e-06
6.77038e-07
-1.95463e-06
8.01151e-07
-2.24257e-06
9.13868e-07
-2.52642e-06
1.00056e-06
-2.79537e-06
1.05069e-06
-3.04165e-06
1.05829e-06
-3.25965e-06
1.02201e-06
-3.446e-06
9.44847e-07
-3.59939e-06
8.32879e-07
-3.71937e-06
6.93554e-07
-3.80466e-06
5.32408e-07
-3.85492e-06
3.56092e-07
-3.87038e-06
1.69737e-07
-3.85243e-06
-2.81454e-08
-3.80042e-06
-2.2955e-07
-3.7156e-06
-4.40623e-07
-3.59619e-06
-6.60567e-07
-3.4389e-06
-8.88342e-07
-3.23676e-06
-1.1213e-06
-2.97844e-06
-1.35149e-06
-2.65037e-06
-1.56238e-06
-2.2435e-06
-1.71843e-06
-1.7586e-06
-1.77236e-06
-1.20405e-06
-1.66575e-06
-6.29849e-07
-1.32417e-06
-1.87883e-07
-7.1792e-07
-1.06704e-08
-1.05914e-07
1.76822e-08
1.84581e-07
2.05791e-07
-6.30484e-08
7.80262e-08
-1.61157e-07
2.0979e-07
-2.69751e-07
2.95686e-07
-3.86926e-07
3.52004e-07
-5.142e-07
3.91924e-07
-6.53598e-07
4.25226e-07
-8.08e-07
4.61393e-07
-9.81449e-07
5.10322e-07
-1.17842e-06
5.81664e-07
-1.40175e-06
6.81255e-07
-1.65024e-06
8.06368e-07
-1.9179e-06
9.44705e-07
-2.19529e-06
1.07854e-06
-2.47149e-06
1.19007e-06
-2.7364e-06
1.26546e-06
-2.98185e-06
1.29615e-06
-3.20104e-06
1.27749e-06
-3.38867e-06
1.20963e-06
-3.54274e-06
1.09892e-06
-3.66359e-06
9.53734e-07
-3.7528e-06
7.82767e-07
-3.81421e-06
5.93816e-07
-3.84963e-06
3.91506e-07
-3.85733e-06
1.77438e-07
-3.8387e-06
-4.67707e-08
-3.79446e-06
-2.73791e-07
-3.72591e-06
-5.09171e-07
-3.63337e-06
-7.53108e-07
-3.51593e-06
-1.00578e-06
-3.37071e-06
-1.26652e-06
-3.19206e-06
-1.53014e-06
-2.96878e-06
-1.78566e-06
-2.67514e-06
-2.01206e-06
-2.28208e-06
-2.16542e-06
-1.77363e-06
-2.1742e-06
-1.15241e-06
-1.94539e-06
-4.97355e-07
-1.37298e-06
-1.01087e-07
-5.02182e-07
3.99087e-09
7.95034e-08
2.09781e-07
-8.22077e-08
1.60234e-07
-1.97182e-07
3.24765e-07
-3.19674e-07
4.18177e-07
-4.49508e-07
4.81838e-07
-5.89328e-07
5.31745e-07
-7.41914e-07
5.77812e-07
-9.10359e-07
6.29837e-07
-1.09808e-06
6.98045e-07
-1.30787e-06
7.91456e-07
-1.54007e-06
9.1345e-07
-1.79114e-06
1.05743e-06
-2.05385e-06
1.20742e-06
-2.31878e-06
1.34347e-06
-2.57668e-06
1.44797e-06
-2.81912e-06
1.50791e-06
-3.03758e-06
1.5146e-06
-3.22545e-06
1.46536e-06
-3.38025e-06
1.36443e-06
-3.5025e-06
1.22117e-06
-3.59401e-06
1.04524e-06
-3.65626e-06
8.45017e-07
-3.69062e-06
6.28173e-07
-3.69906e-06
3.99945e-07
-3.68592e-06
1.64302e-07
-3.65725e-06
-7.54375e-08
-3.6134e-06
-3.17642e-07
-3.55638e-06
-5.66194e-07
-3.48737e-06
-8.22114e-07
-3.40575e-06
-1.0874e-06
-3.30899e-06
-1.36328e-06
-3.19107e-06
-1.64806e-06
-3.04218e-06
-1.93456e-06
-2.84733e-06
-2.20691e-06
-2.57746e-06
-2.43529e-06
-2.19023e-06
-2.56143e-06
-1.64693e-06
-2.4887e-06
-9.35412e-07
-2.08449e-06
-2.61169e-07
-1.17642e-06
-1.06225e-08
-1.71043e-07
1.99159e-07
-9.56774e-08
2.55911e-07
-2.21765e-07
4.50852e-07
-3.53427e-07
5.49839e-07
-4.91379e-07
6.1979e-07
-6.38744e-07
6.7911e-07
-7.98559e-07
7.37627e-07
-9.73729e-07
8.05007e-07
-1.16681e-06
8.91129e-07
-1.37907e-06
1.00371e-06
-1.60913e-06
1.14351e-06
-1.85229e-06
1.3006e-06
-2.10113e-06
1.45626e-06
-2.34715e-06
1.58949e-06
-2.5818e-06
1.68262e-06
-2.79619e-06
1.7223e-06
-2.98236e-06
1.70077e-06
-3.13568e-06
1.61868e-06
-3.25595e-06
1.48469e-06
-3.34441e-06
1.30964e-06
-3.40265e-06
1.10347e-06
-3.43347e-06
8.75845e-07
-3.44083e-06
6.35533e-07
-3.42955e-06
3.88657e-07
-3.40392e-06
1.38677e-07
-3.36703e-06
-1.12324e-07
-3.32051e-06
-3.64171e-07
-3.26784e-06
-6.18863e-07
-3.21129e-06
-8.78655e-07
-3.15192e-06
-1.14678e-06
-3.08897e-06
-1.42623e-06
-3.01877e-06
-1.71826e-06
-2.93286e-06
-2.02046e-06
-2.81607e-06
-2.3237e-06
-2.6454e-06
-2.60597e-06
-2.38411e-06
-2.82272e-06
-1.97735e-06
-2.89546e-06
-1.37585e-06
-2.68598e-06
-5.67858e-07
-1.98442e-06
-6.10398e-08
-6.77861e-07
1.38119e-07
-1.03499e-07
3.5941e-07
-2.35501e-07
5.82855e-07
-3.71858e-07
6.86196e-07
-5.1349e-07
7.61423e-07
-6.63553e-07
8.29172e-07
-8.25006e-07
8.9908e-07
-1.00033e-06
9.80333e-07
-1.19118e-06
1.08198e-06
-1.39758e-06
1.21011e-06
-1.61712e-06
1.36304e-06
-1.84476e-06
1.52824e-06
-2.07344e-06
1.68494e-06
-2.29518e-06
1.81122e-06
-2.50148e-06
1.88892e-06
-2.68385e-06
1.90467e-06
-2.83598e-06
1.8529e-06
-2.95552e-06
1.73822e-06
-3.04344e-06
1.57261e-06
-3.10159e-06
1.36779e-06
-3.13317e-06
1.13505e-06
-3.14265e-06
8.85326e-07
-3.13409e-06
6.26971e-07
-3.11099e-06
3.65558e-07
-3.07663e-06
1.04322e-07
-3.03394e-06
-1.55015e-07
-2.98569e-06
-4.12419e-07
-2.93519e-06
-6.69367e-07
-2.88531e-06
-9.28534e-07
-2.83821e-06
-1.19388e-06
-2.7945e-06
-1.46993e-06
-2.75211e-06
-1.76066e-06
-2.70503e-06
-2.06755e-06
-2.64191e-06
-2.38681e-06
-2.5436e-06
-2.70428e-06
-2.37933e-06
-2.98699e-06
-2.10387e-06
-3.17092e-06
-1.65096e-06
-3.13889e-06
-9.35528e-07
-2.69985e-06
-1.69308e-07
-1.44408e-06
-3.11886e-08
-1.06099e-07
4.6551e-07
-2.3931e-07
7.16065e-07
-3.76202e-07
8.23088e-07
-5.17346e-07
9.02567e-07
-6.65611e-07
9.77437e-07
-8.23649e-07
1.05712e-06
-9.93394e-07
1.15008e-06
-1.17566e-06
1.26424e-06
-1.36956e-06
1.40402e-06
-1.57216e-06
1.56564e-06
-1.77856e-06
1.73464e-06
-1.9822e-06
1.88858e-06
-2.17559e-06
2.00462e-06
-2.35088e-06
2.06421e-06
-2.50094e-06
2.05473e-06
-2.62148e-06
1.97344e-06
-2.71203e-06
1.82877e-06
-2.77429e-06
1.63487e-06
-2.81093e-06
1.40444e-06
-2.8259e-06
1.15002e-06
-2.82317e-06
8.826e-07
-2.80594e-06
6.09739e-07
-2.77688e-06
3.36496e-07
-2.73858e-06
6.60216e-08
-2.69367e-06
-1.99922e-07
-2.64509e-06
-4.61002e-07
-2.5961e-06
-7.18362e-07
-2.54996e-06
-9.74673e-07
-2.50958e-06
-1.23425e-06
-2.47676e-06
-1.50275e-06
-2.45101e-06
-1.78641e-06
-2.42824e-06
-2.09032e-06
-2.39931e-06
-2.41574e-06
-2.34793e-06
-2.75566e-06
-2.2482e-06
-3.08671e-06
-2.06258e-06
-3.35654e-06
-1.74339e-06
-3.45808e-06
-1.21676e-06
-3.22649e-06
-3.69318e-07
-2.29152e-06
-4.00507e-07
-1.04151e-07
5.69661e-07
-2.34343e-07
8.46258e-07
-3.67961e-07
9.56706e-07
-5.04842e-07
1.03945e-06
-6.47315e-07
1.11991e-06
-7.97553e-07
1.20736e-06
-9.56896e-07
1.30942e-06
-1.12543e-06
1.43278e-06
-1.30165e-06
1.58023e-06
-1.48245e-06
1.74644e-06
-1.66345e-06
1.91564e-06
-1.83873e-06
2.06386e-06
-2.00176e-06
2.16765e-06
-2.14603e-06
2.20849e-06
-2.26635e-06
2.17504e-06
-2.36018e-06
2.06727e-06
-2.42823e-06
1.89682e-06
-2.47255e-06
1.67919e-06
-2.49613e-06
1.42801e-06
-2.50245e-06
1.15635e-06
-2.49446e-06
8.74604e-07
-2.47438e-06
5.89661e-07
-2.44413e-06
3.06242e-07
-2.40566e-06
2.75554e-08
-2.36124e-06
-2.44344e-07
-2.31359e-06
-5.0865e-07
-2.26593e-06
-7.66021e-07
-2.22175e-06
-1.01885e-06
-2.18445e-06
-1.27155e-06
-2.1567e-06
-1.53051e-06
-2.13944e-06
-1.80367e-06
-2.13055e-06
-2.09921e-06
-2.12322e-06
-2.42306e-06
-2.10398e-06
-2.7749e-06
-2.05012e-06
-3.14057e-06
-1.92735e-06
-3.47932e-06
-1.70058e-06
-3.68485e-06
-1.30633e-06
-3.62074e-06
-5.93288e-07
-3.00457e-06
-9.93795e-07
-9.83468e-08
6.68008e-07
-2.21803e-07
9.69713e-07
-3.48834e-07
1.08374e-06
-4.78177e-07
1.16879e-06
-6.11425e-07
1.25316e-06
-7.50193e-07
1.34612e-06
-8.95246e-07
1.45447e-06
-1.04607e-06
1.5836e-06
-1.20071e-06
1.73487e-06
-1.35635e-06
1.90209e-06
-1.50927e-06
2.06856e-06
-1.65452e-06
2.20911e-06
-1.787e-06
2.30013e-06
-1.90208e-06
2.32356e-06
-1.99636e-06
2.26933e-06
-2.06881e-06
2.13972e-06
-2.12057e-06
1.94858e-06
-2.1536e-06
1.71222e-06
-2.17053e-06
1.44493e-06
-2.17388e-06
1.15969e-06
-2.16547e-06
8.66199e-07
-2.14666e-06
5.70852e-07
-2.11865e-06
2.78233e-07
-2.08285e-06
-8.24808e-09
-2.04112e-06
-2.8607e-07
-1.99594e-06
-5.53832e-07
-1.95041e-06
-8.11551e-07
-1.90809e-06
-1.06117e-06
-1.87265e-06
-1.307e-06
-1.84726e-06
-1.55589e-06
-1.83381e-06
-1.81712e-06
-1.83162e-06
-2.1014e-06
-1.8359e-06
-2.41879e-06
-1.83594e-06
-2.77486e-06
-1.8122e-06
-3.16431e-06
-1.73405e-06
-3.55747e-06
-1.55508e-06
-3.86382e-06
-1.24402e-06
-3.9318e-06
-7.3866e-07
-3.50993e-06
-1.73245e-06
-8.91645e-08
7.57172e-07
-2.03088e-07
1.08364e-06
-3.20825e-07
1.20147e-06
-4.39954e-07
1.28792e-06
-5.61252e-07
1.37446e-06
-6.85697e-07
1.47057e-06
-8.13477e-07
1.58225e-06
-9.43634e-07
1.71376e-06
-1.07414e-06
1.86538e-06
-1.20256e-06
2.0305e-06
-1.32586e-06
2.19187e-06
-1.44076e-06
2.324e-06
-1.54355e-06
2.40292e-06
-1.63174e-06
2.41175e-06
-1.70367e-06
2.34126e-06
-1.75924e-06
2.19529e-06
-1.79951e-06
1.98885e-06
-1.82597e-06
1.73868e-06
-1.84044e-06
1.45941e-06
-1.84436e-06
1.16361e-06
-1.83857e-06
8.60409e-07
-1.82365e-06
5.55939e-07
-1.80023e-06
2.54803e-07
-1.7692e-06
-3.92729e-08
-1.73208e-06
-3.2319e-07
-1.69109e-06
-5.94818e-07
-1.64922e-06
-8.53427e-07
-1.60997e-06
-1.10041e-06
-1.57709e-06
-1.33987e-06
-1.55401e-06
-1.57898e-06
-1.54316e-06
-1.82797e-06
-1.54492e-06
-2.09965e-06
-1.55606e-06
-2.40765e-06
-1.56815e-06
-2.76278e-06
-1.56484e-06
-3.16762e-06
-1.51877e-06
-3.60353e-06
-1.37739e-06
-4.0052e-06
-1.13154e-06
-4.17765e-06
-6.96095e-07
-3.94537e-06
-2.42855e-06
-7.73783e-08
8.34551e-07
-1.79677e-07
1.18594e-06
-2.85912e-07
1.30771e-06
-3.92705e-07
1.39471e-06
-5.00059e-07
1.48181e-06
-6.08255e-07
1.57877e-06
-7.16914e-07
1.69091e-06
-8.24738e-07
1.82158e-06
-9.29695e-07
1.97034e-06
-1.02965e-06
2.13045e-06
-1.12264e-06
2.28486e-06
-1.20825e-06
2.40961e-06
-1.28214e-06
2.47681e-06
-1.34539e-06
2.475e-06
-1.39765e-06
2.39353e-06
-1.43937e-06
2.237e-06
-1.47112e-06
2.0206e-06
-1.49372e-06
1.76128e-06
-1.50799e-06
1.47367e-06
-1.51433e-06
1.16996e-06
-1.5128e-06
8.58872e-07
-1.50332e-06
5.46466e-07
-1.48601e-06
2.37486e-07
-1.46136e-06
-6.39184e-08
-1.43056e-06
-3.53992e-07
-1.39562e-06
-6.29759e-07
-1.35937e-06
-8.89678e-07
-1.32521e-06
-1.13457e-06
-1.29678e-06
-1.3683e-06
-1.2775e-06
-1.59826e-06
-1.27001e-06
-1.83545e-06
-1.27534e-06
-2.09432e-06
-1.29143e-06
-2.39156e-06
-1.31135e-06
-2.74286e-06
-1.32136e-06
-3.15761e-06
-1.29738e-06
-3.6275e-06
-1.19787e-06
-4.10472e-06
-9.8613e-07
-4.38938e-06
-6.12261e-07
-4.31924e-06
-3.04081e-06
-6.35038e-08
8.98055e-07
-1.52384e-07
1.27482e-06
-2.45481e-07
1.40081e-06
-3.38567e-07
1.4878e-06
-4.30748e-07
1.57399e-06
-5.21602e-07
1.66962e-06
-6.10264e-07
1.77957e-06
-6.95173e-07
1.90649e-06
-7.74341e-07
2.0495e-06
-8.4606e-07
2.20217e-06
-9.09626e-07
2.34843e-06
-9.65812e-07
2.4658e-06
-1.01105e-06
2.52205e-06
-1.05092e-06
2.51487e-06
-1.08529e-06
2.42789e-06
-1.11464e-06
2.26636e-06
-1.13913e-06
2.0451e-06
-1.15881e-06
1.78096e-06
-1.17356e-06
1.48842e-06
-1.18291e-06
1.1793e-06
-1.18622e-06
8.62183e-07
-1.18293e-06
5.43173e-07
-1.1727e-06
2.2726e-07
-1.1557e-06
-8.09192e-08
-1.13282e-06
-3.7687e-07
-1.10587e-06
-6.56712e-07
-1.0775e-06
-9.1805e-07
-1.05093e-06
-1.16113e-06
-1.02958e-06
-1.38965e-06
-1.01664e-06
-1.6112e-06
-1.01473e-06
-1.83737e-06
-1.02519e-06
-2.08386e-06
-1.04685e-06
-2.3699e-06
-1.07412e-06
-2.71559e-06
-1.09549e-06
-3.13624e-06
-1.08999e-06
-3.63299e-06
-1.02473e-06
-4.16998e-06
-8.38185e-07
-4.57593e-06
-5.25968e-07
-4.63146e-06
-3.56678e-06
-4.83659e-08
9.46421e-07
-1.22609e-07
1.34906e-06
-2.01453e-07
1.47965e-06
-2.79828e-07
1.56618e-06
-3.56051e-07
1.65021e-06
-4.29115e-07
1.74268e-06
-4.97736e-07
1.8482e-06
-5.60109e-07
1.96887e-06
-6.14243e-07
2.10364e-06
-6.58719e-07
2.24665e-06
-6.93784e-07
2.38349e-06
-7.20567e-07
2.49258e-06
-7.39545e-07
2.54103e-06
-7.56203e-07
2.53152e-06
-7.7271e-07
2.4444e-06
-7.89563e-07
2.28321e-06
-8.06503e-07
2.06204e-06
-8.2279e-07
1.79725e-06
-8.37481e-07
1.50311e-06
-8.4939e-07
1.19121e-06
-8.57336e-07
8.70129e-07
-8.60348e-07
5.46186e-07
-8.5778e-07
2.24692e-07
-8.49487e-07
-8.92125e-08
-8.36088e-07
-3.90269e-07
-8.19145e-07
-6.73655e-07
-8.01082e-07
-9.36113e-07
-7.84845e-07
-1.17737e-06
-7.7351e-07
-1.40099e-06
-7.69904e-07
-1.6148e-06
-7.7638e-07
-1.83089e-06
-7.94385e-07
-2.06585e-06
-8.23366e-07
-2.34092e-06
-8.58794e-07
-2.68016e-06
-8.9041e-07
-3.10463e-06
-8.99747e-07
-3.62366e-06
-8.60368e-07
-4.20936e-06
-7.09608e-07
-4.72669e-06
-4.48224e-07
-4.89284e-06
-4.015e-06
-3.27869e-08
9.79207e-07
-9.18231e-08
1.4081e-06
-1.55818e-07
1.54365e-06
-2.19056e-07
1.62941e-06
-2.79169e-07
1.71033e-06
-3.34618e-07
1.79813e-06
-3.83762e-07
1.89734e-06
-4.246e-07
2.0097e-06
-4.55104e-07
2.13414e-06
-4.73884e-07
2.26543e-06
-4.81531e-07
2.39114e-06
-4.80113e-07
2.49116e-06
-4.75138e-07
2.53605e-06
-4.68901e-07
2.52529e-06
-4.66272e-07
2.44177e-06
-4.69031e-07
2.28597e-06
-4.76758e-07
2.06977e-06
-4.88021e-07
1.80851e-06
-5.01154e-07
1.51625e-06
-5.14391e-07
1.20445e-06
-5.26118e-07
8.81856e-07
-5.3506e-07
5.55128e-07
-5.40351e-07
2.29984e-07
-5.41625e-07
-8.79393e-08
-5.39203e-07
-3.92691e-07
-5.34344e-07
-6.78514e-07
-5.29104e-07
-9.41354e-07
-5.25982e-07
-1.18049e-06
-5.27594e-07
-1.39938e-06
-5.36281e-07
-1.60612e-06
-5.54023e-07
-1.81315e-06
-5.82222e-07
-2.03765e-06
-6.20823e-07
-2.30232e-06
-6.6638e-07
-2.6346e-06
-7.0985e-07
-3.06115e-06
-7.35084e-07
-3.59842e-06
-7.18627e-07
-4.22582e-06
-6.00525e-07
-4.8448e-06
-3.77013e-07
-5.11635e-06
-4.39202e-06
-1.76546e-08
9.96862e-07
-6.10445e-08
1.45149e-06
-1.10041e-07
1.59264e-06
-1.58202e-07
1.67757e-06
-2.02561e-07
1.75468e-06
-2.41125e-07
1.8367e-06
-2.7195e-07
1.92816e-06
-2.9288e-07
2.03064e-06
-3.01829e-07
2.14309e-06
-2.97365e-07
2.26097e-06
-2.80065e-07
2.37384e-06
-2.529e-07
2.464e-06
-2.23908e-07
2.50706e-06
-1.95056e-07
2.49643e-06
-1.72341e-07
2.41905e-06
-1.58927e-07
2.27255e-06
-1.54896e-07
2.06574e-06
-1.5862e-07
1.81223e-06
-1.67935e-07
1.52556e-06
-1.80632e-07
1.21715e-06
-1.94761e-07
8.95985e-07
-2.08825e-07
5.69193e-07
-2.21823e-07
2.42982e-07
-2.33252e-07
-7.65106e-08
-2.43126e-07
-3.82817e-07
-2.5232e-07
-6.69319e-07
-2.62378e-07
-9.31296e-07
-2.74937e-07
-1.16793e-06
-2.92154e-07
-1.38216e-06
-3.1573e-07
-1.58254e-06
-3.4722e-07
-1.78166e-06
-3.87906e-07
-1.99697e-06
-4.38102e-07
-2.25212e-06
-4.95334e-07
-2.57737e-06
-5.51635e-07
-3.00485e-06
-5.9208e-07
-3.55798e-06
-5.93013e-07
-4.22488e-06
-5.1236e-07
-4.92545e-06
-3.25459e-07
-5.30325e-06
-4.71747e-06
-2.54489e-09
9.99407e-07
-3.09257e-08
1.47987e-06
-6.53333e-08
1.62705e-06
-9.88651e-08
1.71111e-06
-1.28184e-07
1.784e-06
-1.50954e-07
1.85947e-06
-1.65013e-07
1.94222e-06
-1.68106e-07
2.03373e-06
-1.58098e-07
2.13308e-06
-1.33522e-07
2.23639e-06
-9.47431e-08
2.33506e-06
-4.515e-08
2.4144e-06
6.99588e-09
2.45492e-06
5.83304e-08
2.4451e-06
1.02082e-07
2.3753e-06
1.33814e-07
2.24082e-06
1.52411e-07
2.04714e-06
1.59156e-07
1.80549e-06
1.56348e-07
1.52837e-06
1.46469e-07
1.22702e-06
1.31696e-07
9.10759e-07
1.13674e-07
5.87215e-07
9.34851e-08
2.63171e-07
7.16614e-08
-5.46869e-08
4.85879e-08
-3.59743e-07
2.38823e-08
-6.44613e-07
-3.06608e-09
-9.04348e-07
-3.3798e-08
-1.1372e-06
-6.87655e-08
-1.34719e-06
-1.09167e-07
-1.54214e-06
-1.56217e-07
-1.73461e-06
-2.11093e-07
-1.94209e-06
-2.74422e-07
-2.1888e-06
-3.44576e-07
-2.50721e-06
-4.14711e-07
-2.93472e-06
-4.71023e-07
-3.50167e-06
-4.89737e-07
-4.20617e-06
-4.37382e-07
-4.9778e-06
-2.82186e-07
-5.45845e-06
-4.99966e-06
9.69963e-09
9.89707e-07
-3.33607e-09
1.4929e-06
-2.31039e-08
1.64682e-06
-4.25528e-08
1.73056e-06
-5.77582e-08
1.79921e-06
-6.60544e-08
1.86776e-06
-6.51274e-08
1.9413e-06
-5.2685e-08
2.02129e-06
-2.6565e-08
2.10696e-06
1.4776e-08
2.19505e-06
7.10789e-08
2.27876e-06
1.39315e-07
2.34617e-06
2.12522e-07
2.38171e-06
2.8466e-07
2.37296e-06
3.49304e-07
2.31066e-06
4.00687e-07
2.18944e-06
4.36261e-07
2.01157e-06
4.56381e-07
1.78537e-06
4.62979e-07
1.52177e-06
4.58451e-07
1.23155e-06
4.45039e-07
9.24171e-07
4.24492e-07
6.07762e-07
3.97968e-07
2.89694e-07
3.65933e-07
-2.26517e-08
3.29309e-07
-3.2312e-07
2.88188e-07
-6.03492e-07
2.42798e-07
-8.58958e-07
1.93484e-07
-1.08789e-06
1.39885e-07
-1.29359e-06
8.17023e-08
-1.48396e-06
1.82107e-08
-1.67112e-06
-5.16776e-08
-1.8722e-06
-1.28864e-07
-2.11161e-06
-2.12516e-07
-2.42356e-06
-2.96741e-07
-2.85049e-06
-3.68678e-07
-3.42973e-06
-4.0607e-07
-4.16878e-06
-3.78231e-07
-5.00564e-06
-2.49867e-07
-5.58681e-06
-5.24953e-06
2.14036e-08
9.68304e-07
2.24713e-08
1.49183e-06
1.60074e-08
1.65328e-06
9.65514e-09
1.73691e-06
7.43829e-09
1.80143e-06
1.21491e-08
1.86305e-06
2.61714e-08
1.92727e-06
5.17718e-08
1.99569e-06
9.10347e-08
2.0677e-06
1.4548e-07
2.1406e-06
2.15306e-07
2.20893e-06
2.9795e-07
2.26352e-06
3.87578e-07
2.29208e-06
4.77722e-07
2.28282e-06
5.61546e-07
2.22683e-06
6.32506e-07
2.11848e-06
6.86465e-07
1.95761e-06
7.22222e-07
1.74961e-06
7.40773e-07
1.50322e-06
7.44066e-07
1.22826e-06
7.34169e-07
9.34068e-07
7.12805e-07
6.29126e-07
6.81134e-07
3.21366e-07
6.4021e-07
1.82722e-08
5.90581e-07
-2.73491e-07
5.33545e-07
-5.46456e-07
4.70369e-07
-7.95782e-07
4.02372e-07
-1.01989e-06
3.3042e-07
-1.22164e-06
2.54797e-07
-1.40833e-06
1.75126e-07
-1.59145e-06
9.03378e-08
-1.78742e-06
-8.17611e-10
-2.02045e-06
-9.7898e-08
-2.32648e-06
-1.96203e-07
-2.75219e-06
-2.83451e-07
-3.34248e-06
-3.38439e-07
-4.11379e-06
-3.31408e-07
-5.01267e-06
-2.24723e-07
-5.6935e-06
-5.47425e-06
3.17519e-08
9.36552e-07
4.53167e-08
1.47827e-06
5.12662e-08
1.64733e-06
5.69218e-08
1.73125e-06
6.64224e-08
1.79193e-06
8.26315e-08
1.84684e-06
1.07908e-07
1.902e-06
1.44416e-07
1.95918e-06
1.9411e-07
2.018e-06
2.58453e-07
2.07626e-06
3.37785e-07
2.1296e-06
4.30346e-07
2.17096e-06
5.31537e-07
2.19089e-06
6.35041e-07
2.17931e-06
7.34231e-07
2.12764e-06
8.22261e-07
2.03045e-06
8.93762e-07
1.88611e-06
9.45861e-07
1.69751e-06
9.77976e-07
1.47111e-06
9.91056e-07
1.21518e-06
9.86681e-07
9.38443e-07
9.66426e-07
6.4938e-07
9.31533e-07
3.56259e-07
8.83173e-07
6.66326e-08
8.22541e-07
-2.1286e-07
7.51625e-07
-4.7554e-07
6.72674e-07
-7.16831e-07
5.88044e-07
-9.3526e-07
4.99558e-07
-1.13316e-06
4.08122e-07
-1.3169e-06
3.13613e-07
-1.49694e-06
2.14982e-07
-1.68879e-06
1.10804e-07
-1.91628e-06
6.76429e-10
-2.21635e-06
-1.1109e-07
-2.64042e-06
-2.12895e-07
-3.24068e-06
-2.84339e-07
-4.04235e-06
-2.96562e-07
-5.00045e-06
-2.06443e-07
-5.78362e-06
-5.68069e-06
3.97232e-08
8.96829e-07
6.47325e-08
1.45326e-06
8.20349e-08
1.63003e-06
9.86094e-08
1.71468e-06
1.18588e-07
1.77195e-06
1.4483e-07
1.8206e-06
1.79625e-07
1.8672e-06
2.2499e-07
1.91381e-06
2.82695e-07
1.9603e-06
3.54062e-07
2.00489e-06
4.39514e-07
2.04415e-06
5.37857e-07
2.07262e-06
6.45662e-07
2.08308e-06
7.57435e-07
2.06754e-06
8.66811e-07
2.01827e-06
9.67282e-07
1.92998e-06
1.05291e-06
1.80048e-06
1.11949e-06
1.63093e-06
1.16487e-06
1.42573e-06
1.18859e-06
1.19146e-06
1.19127e-06
9.35757e-07
1.17407e-06
6.6658e-07
1.13825e-06
3.92087e-07
1.0852e-06
1.1968e-07
1.01674e-06
-1.44403e-07
9.35505e-07
-3.94303e-07
8.44464e-07
-6.2579e-07
7.46739e-07
-8.37534e-07
6.44871e-07
-1.03129e-06
5.40304e-07
-1.21233e-06
4.33143e-07
-1.38978e-06
3.22394e-07
-1.57804e-06
2.06533e-07
-1.80041e-06
8.48116e-08
-2.09463e-06
-3.95397e-08
-2.51607e-06
-1.54898e-07
-3.12532e-06
-2.41131e-07
-3.95611e-06
-2.71077e-07
-4.9705e-06
-1.93704e-07
-5.86099e-06
-5.8744e-06
4.55187e-08
8.5131e-07
8.04673e-08
1.41831e-06
1.07943e-07
1.60255e-06
1.34295e-07
1.68833e-06
1.63525e-07
1.74272e-06
1.98433e-07
1.78569e-06
2.41196e-07
1.82444e-06
2.9365e-07
1.86136e-06
3.57347e-07
1.8966e-06
4.3342e-07
1.92882e-06
5.22273e-07
1.95529e-06
6.23048e-07
1.97185e-06
7.3319e-07
1.97294e-06
8.4837e-07
1.95236e-06
9.62746e-07
1.90389e-06
1.07023e-06
1.8225e-06
1.16497e-06
1.70574e-06
1.24205e-06
1.55384e-06
1.29815e-06
1.36963e-06
1.33152e-06
1.15809e-06
1.34169e-06
9.25583e-07
1.32916e-06
6.79115e-07
1.29499e-06
4.26254e-07
1.24073e-06
1.73945e-07
1.16854e-06
-7.22139e-08
1.0815e-06
-3.07262e-07
9.83001e-07
-5.27296e-07
8.76624e-07
-7.31157e-07
7.65374e-07
-9.20037e-07
6.5104e-07
-1.098e-06
5.33987e-07
-1.27272e-06
4.13417e-07
-1.45747e-06
2.87759e-07
-1.67476e-06
1.55867e-07
-1.96274e-06
2.03458e-08
-2.38055e-06
-1.07522e-07
-2.99745e-06
-2.07061e-07
-3.85657e-06
-2.51975e-07
-4.92559e-06
-1.85943e-07
-5.92702e-06
-6.06034e-06
4.92005e-08
8.0211e-07
9.24186e-08
1.37509e-06
1.28783e-07
1.56619e-06
1.63745e-07
1.65336e-06
2.01053e-07
1.70541e-06
2.43383e-07
1.74336e-06
2.92768e-07
1.77506e-06
3.50845e-07
1.80328e-06
4.18937e-07
1.82851e-06
4.97959e-07
1.8498e-06
5.88213e-07
1.86504e-06
6.89028e-07
1.87103e-06
7.98424e-07
1.86355e-06
9.13017e-07
1.83777e-06
1.02793e-06
1.78898e-06
1.13752e-06
1.71291e-06
1.23628e-06
1.60698e-06
1.31921e-06
1.47091e-06
1.38236e-06
1.30648e-06
1.42308e-06
1.11737e-06
1.44001e-06
9.08658e-07
1.43291e-06
6.86216e-07
1.40249e-06
4.56666e-07
1.35023e-06
2.26212e-07
1.27839e-06
-3.76944e-10
1.19005e-06
-2.18926e-07
1.08881e-06
-4.26053e-07
9.78344e-07
-6.20692e-07
8.61791e-07
-8.03484e-07
7.41164e-07
-9.77368e-07
6.17223e-07
-1.14878e-06
4.89436e-07
-1.32968e-06
3.56162e-07
-1.54148e-06
2.15849e-07
-1.82243e-06
7.04723e-08
-2.23517e-06
-6.8891e-08
-2.85809e-06
-1.80988e-07
-3.74448e-06
-2.38812e-07
-4.86777e-06
-1.83317e-07
-5.98252e-06
-6.24366e-06
5.08487e-08
7.51261e-07
1.00572e-07
1.32537e-06
1.44463e-07
1.5223e-06
1.86861e-07
1.61096e-06
2.31142e-07
1.66113e-06
2.79789e-07
1.69472e-06
3.34663e-07
1.72018e-06
3.97199e-07
1.74074e-06
4.68486e-07
1.75722e-06
5.4922e-07
1.76906e-06
6.39566e-07
1.7747e-06
7.38919e-07
1.77168e-06
8.45647e-07
1.75682e-06
9.56975e-07
1.72644e-06
1.06906e-06
1.67689e-06
1.17703e-06
1.60494e-06
1.27574e-06
1.50827e-06
1.36044e-06
1.38621e-06
1.42701e-06
1.23991e-06
1.47236e-06
1.07202e-06
1.49456e-06
8.86459e-07
1.4928e-06
6.8797e-07
1.46736e-06
4.82111e-07
1.41946e-06
2.74114e-07
1.35115e-06
6.79272e-08
1.26528e-06
-1.33052e-07
1.16526e-06
-3.26039e-07
1.05456e-06
-5.09985e-07
9.3625e-07
-6.85176e-07
8.12627e-07
-8.53745e-07
6.84782e-07
-1.02094e-06
5.52343e-07
-1.19724e-06
4.13658e-07
-1.4028e-06
2.6688e-07
-1.67565e-06
1.13349e-07
-2.08164e-06
-3.6301e-08
-2.70844e-06
-1.59936e-07
-3.62084e-06
-2.28325e-07
-4.79938e-06
-1.83939e-07
-6.0269e-06
-6.4276e-06
5.06076e-08
7.00653e-07
1.04996e-07
1.27098e-06
1.54985e-07
1.47231e-06
2.03641e-07
1.56231e-06
2.53859e-07
1.61091e-06
3.07857e-07
1.64072e-06
3.67297e-07
1.66074e-06
4.33403e-07
1.67464e-06
5.07041e-07
1.68359e-06
5.88691e-07
1.68741e-06
6.78368e-07
1.68502e-06
7.75462e-07
1.67458e-06
8.78562e-07
1.65372e-06
9.85338e-07
1.61966e-06
1.09263e-06
1.56961e-06
1.19644e-06
1.50112e-06
1.29229e-06
1.41242e-06
1.37574e-06
1.30276e-06
1.4429e-06
1.17275e-06
1.49055e-06
1.02437e-06
1.51643e-06
8.60576e-07
1.51937e-06
6.85023e-07
1.49925e-06
5.02234e-07
1.457e-06
3.16362e-07
1.39422e-06
1.30713e-07
1.31332e-06
-5.21558e-08
1.2173e-06
-2.30015e-07
1.10925e-06
-4.01935e-07
9.92161e-07
-5.68089e-07
8.68415e-07
-7.29999e-07
7.39247e-07
-8.9177e-07
6.04448e-07
-1.06244e-06
4.62415e-07
-1.26076e-06
3.10996e-07
-1.52423e-06
1.50735e-07
-1.92138e-06
-8.37018e-09
-2.54933e-06
-1.43084e-07
-3.48613e-06
-2.21162e-07
-4.7213e-06
-1.86279e-07
-6.06179e-06
-6.61387e-06
4.86553e-08
6.51998e-07
1.05814e-07
1.21382e-06
1.60412e-07
1.41771e-06
2.14143e-07
1.50858e-06
2.69327e-07
1.55573e-06
3.27845e-07
1.5822e-06
3.91118e-07
1.59747e-06
4.60155e-07
1.6056e-06
5.356e-07
1.60814e-06
6.17732e-07
1.60528e-06
7.06417e-07
1.59633e-06
8.01006e-07
1.57999e-06
9.00224e-07
1.5545e-06
1.00207e-06
1.51781e-06
1.10386e-06
1.46782e-06
1.20231e-06
1.40267e-06
1.29367e-06
1.32106e-06
1.37403e-06
1.2224e-06
1.43979e-06
1.107e-06
1.48791e-06
9.76248e-07
1.51604e-06
8.32446e-07
1.5228e-06
6.78268e-07
1.50792e-06
5.17109e-07
1.47175e-06
3.52533e-07
1.41545e-06
1.87012e-07
1.34093e-06
2.23691e-08
1.25067e-06
-1.39752e-07
1.14736e-06
-2.98634e-07
1.03373e-06
-4.54457e-07
9.12036e-07
-6.08301e-07
7.83599e-07
-7.63334e-07
6.48393e-07
-9.27236e-07
5.04839e-07
-1.11721e-06
3.50442e-07
-1.36983e-06
1.84874e-07
-1.75581e-06
1.73021e-08
-2.38176e-06
-1.28071e-07
-3.34075e-06
-2.14757e-07
-4.63461e-06
-1.90547e-07
-6.086e-06
-6.80442e-06
4.51633e-08
6.06835e-07
1.03166e-07
1.15582e-06
1.60829e-07
1.36005e-06
2.18451e-07
1.45096e-06
2.77689e-07
1.49649e-06
3.40014e-07
1.51987e-06
4.06562e-07
1.53092e-06
4.78103e-07
1.53406e-06
5.55064e-07
1.53118e-06
6.37531e-07
1.52281e-06
7.25226e-07
1.50864e-06
8.17452e-07
1.48777e-06
9.13013e-07
1.45894e-06
1.01017e-06
1.42066e-06
1.10659e-06
1.37139e-06
1.19952e-06
1.30975e-06
1.28585e-06
1.23474e-06
1.36229e-06
1.14596e-06
1.42564e-06
1.04364e-06
1.47315e-06
9.2874e-07
1.5027e-06
8.02894e-07
1.5126e-06
6.6837e-07
1.50227e-06
5.27441e-07
1.47194e-06
3.8286e-07
1.42236e-06
2.36594e-07
1.35485e-06
8.98751e-08
1.27136e-06
-5.62615e-08
1.17411e-06
-2.01378e-07
1.06537e-06
-3.45722e-07
9.47227e-07
-4.90156e-07
8.2106e-07
-6.37167e-07
6.87024e-07
-7.93199e-07
5.43613e-07
-9.73799e-07
3.87998e-07
-1.21422e-06
2.18774e-07
-1.58659e-06
4.37453e-08
-2.20673e-06
-1.12633e-07
-3.18437e-06
-2.0857e-07
-4.53868e-06
-1.95549e-07
-6.09902e-06
-6.99997e-06
4.02637e-08
5.66571e-07
9.71586e-08
1.09893e-06
1.56296e-07
1.30091e-06
2.16625e-07
1.39063e-06
2.79062e-07
1.43405e-06
3.44592e-07
1.45434e-06
4.1401e-07
1.4615e-06
4.87816e-07
1.46025e-06
5.66207e-07
1.45279e-06
6.49083e-07
1.43994e-06
7.36032e-07
1.42169e-06
8.26301e-07
1.3975e-06
9.18747e-07
1.36649e-06
1.01181e-06
1.3276e-06
1.1035e-06
1.2797e-06
1.19145e-06
1.2218e-06
1.27302e-06
1.15316e-06
1.34549e-06
1.07349e-06
1.40616e-06
9.8297e-07
1.45257e-06
8.8233e-07
1.48271e-06
7.7276e-07
1.49516e-06
6.55912e-07
1.48909e-06
5.33518e-07
1.46439e-06
4.07553e-07
1.42149e-06
2.79494e-07
1.36123e-06
1.50142e-07
1.28498e-06
1.99914e-08
1.19443e-06
-1.10834e-07
1.09143e-06
-2.4272e-07
9.77794e-07
-3.76522e-07
8.54925e-07
-5.14298e-07
7.23171e-07
-6.61445e-07
5.8116e-07
-8.31788e-07
4.25745e-07
-1.05881e-06
2.54295e-07
-1.41514e-06
7.27919e-08
-2.02523e-06
-9.46573e-08
-3.01693e-06
-2.01944e-07
-4.43139e-06
-2.00776e-07
-6.10019e-06
-7.20075e-06
3.3964e-08
5.32607e-07
8.77576e-08
1.04513e-06
1.46758e-07
1.24191e-06
2.08637e-07
1.32875e-06
2.73488e-07
1.3692e-06
3.41729e-07
1.3861e-06
4.13749e-07
1.38948e-06
4.89738e-07
1.38426e-06
5.69646e-07
1.37288e-06
6.53185e-07
1.3564e-06
7.39815e-07
1.33506e-06
8.28724e-07
1.30859e-06
9.18808e-07
1.27641e-06
1.00865e-06
1.23776e-06
1.09651e-06
1.19184e-06
1.18038e-06
1.13794e-06
1.25802e-06
1.07553e-06
1.32712e-06
1.00438e-06
1.38542e-06
9.24668e-07
1.43084e-06
8.3691e-07
1.46159e-06
7.4201e-07
1.47634e-06
6.41165e-07
1.47419e-06
5.35667e-07
1.45485e-06
4.2689e-07
1.41845e-06
3.15898e-07
1.36538e-06
2.03206e-07
1.29649e-06
8.88875e-08
1.21293e-06
-2.72825e-08
1.11611e-06
-1.45896e-07
1.00754e-06
-2.6795e-07
8.88574e-07
-3.95334e-07
7.59782e-07
-5.32654e-07
6.20045e-07
-6.9205e-07
4.66036e-07
-9.04796e-07
2.93889e-07
-1.24299e-06
1.07567e-07
-1.83891e-06
-7.02989e-08
-2.83906e-06
-1.90937e-07
-4.31075e-06