/*--------------------------------*- C++ -*----------------------------------*\
  =========                 |
  \\      /  F ield         | OpenFOAM: The Open Source CFD Toolbox
   \\    /   O peration     | Website:  https://openfoam.org
    \\  /    A nd           | Version:  12
     \\/     M anipulation  |
\*---------------------------------------------------------------------------*/
FoamFile
{
    format      ascii;
    class       volVectorField;
    location    "2";
    object      U;
}
// * * * * * * * * * * * * * * * * * * * * * * * * * * * * * * * * * * * * * //

dimensions      [0 1 -1 0 0 0 0];

internalField   nonuniform List<vector> 
1600
(
(0.000460769 -0.000485081 0)
(0.00134522 -0.000430754 0)
(0.00165169 -0.000290299 0)
(0.00145439 -0.000204701 0)
(0.00101444 -0.00020093 0)
(0.000540406 -0.000245994 0)
(0.000123726 -0.000308904 0)
(-0.000221807 -0.000381388 0)
(-0.000537728 -0.000445903 0)
(-0.000917853 -0.000483866 0)
(-0.00153946 -0.000476311 0)
(-0.0026567 -0.000406853 0)
(-0.00456972 -0.000236359 0)
(-0.00757877 0.000145848 0)
(-0.0121426 0.000911885 0)
(-0.018668 0.00214486 0)
(-0.0272577 0.00370083 0)
(-0.037711 0.00521757 0)
(-0.0492733 0.00623305 0)
(-0.0608503 0.00651115 0)
(-0.0714588 0.00613048 0)
(-0.0804734 0.00527562 0)
(-0.0875306 0.00409348 0)
(-0.0921967 0.00275487 0)
(-0.0942617 0.00145922 0)
(-0.0943241 -0.000303324 0)
(-0.0909984 -0.00175226 0)
(-0.0854585 -0.00346566 0)
(-0.0768093 -0.00506143 0)
(-0.0657861 -0.00661583 0)
(-0.052337 -0.00782353 0)
(-0.0374102 -0.00846618 0)
(-0.021804 -0.00808303 0)
(-0.00668388 -0.00643374 0)
(0.0049669 -0.00409293 0)
(0.0113657 -0.000688536 0)
(0.0117661 0.00156129 0)
(0.00910187 0.00203233 0)
(0.00451203 0.00164266 0)
(0.00100808 0.0011086 0)
(0.000396218 -0.00136407 0)
(0.000638359 -0.000819956 0)
(-0.000268284 0.0002696 0)
(-0.00195333 0.000960841 0)
(-0.0041002 0.0012293 0)
(-0.00645722 0.00125862 0)
(-0.00891341 0.0011969 0)
(-0.0114692 0.00114359 0)
(-0.0142369 0.00121646 0)
(-0.0174551 0.00156309 0)
(-0.0214916 0.00235123 0)
(-0.0267964 0.00371059 0)
(-0.0338121 0.00569435 0)
(-0.0427733 0.00828772 0)
(-0.0534271 0.0112803 0)
(-0.0651683 0.0141864 0)
(-0.0773121 0.0164365 0)
(-0.0891459 0.0175696 0)
(-0.100134 0.0174398 0)
(-0.1099 0.0161988 0)
(-0.118166 0.0140841 0)
(-0.124692 0.0113112 0)
(-0.129304 0.00808709 0)
(-0.131818 0.00457658 0)
(-0.132101 0.00087771 0)
(-0.130152 -0.00304766 0)
(-0.125711 -0.00712068 0)
(-0.118856 -0.0112902 0)
(-0.109384 -0.0154335 0)
(-0.0974265 -0.0193127 0)
(-0.0831009 -0.022563 0)
(-0.0667113 -0.0245753 0)
(-0.0489034 -0.0245221 0)
(-0.030442 -0.0214924 0)
(-0.0130605 -0.0153982 0)
(0.000596059 -0.00672661 0)
(0.00777527 0.00105365 0)
(0.00804436 0.0049748 0)
(0.00514132 0.00602132 0)
(0.00112507 0.00426646 0)
(4.70558e-05 -0.00144567 0)
(-0.00112534 0.00031025 0)
(-0.0033958 0.00237979 0)
(-0.00628853 0.00365943 0)
(-0.00963581 0.00429003 0)
(-0.0132822 0.00456127 0)
(-0.0172017 0.00472245 0)
(-0.0214706 0.00499369 0)
(-0.0262799 0.00562347 0)
(-0.0319377 0.00688453 0)
(-0.0387983 0.0089948 0)
(-0.0471172 0.0119843 0)
(-0.0569268 0.0156233 0)
(-0.067986 0.01948 0)
(-0.0797924 0.0230528 0)
(-0.0917059 0.0258418 0)
(-0.10311 0.0274261 0)
(-0.113584 0.0275954 0)
(-0.122908 0.0263277 0)
(-0.130927 0.0237575 0)
(-0.137505 0.0201528 0)
(-0.142566 0.0157806 0)
(-0.146041 0.010867 0)
(-0.147838 0.00556109 0)
(-0.14791 -0.000108623 0)
(-0.146281 -0.00617597 0)
(-0.142695 -0.0124559 0)
(-0.13706 -0.0188906 0)
(-0.129244 -0.0253467 0)
(-0.119076 -0.0315376 0)
(-0.1065 -0.0369664 0)
(-0.0915784 -0.0410463 0)
(-0.0745717 -0.042663 0)
(-0.0557125 -0.040366 0)
(-0.0353919 -0.032686 0)
(-0.0158461 -0.0194772 0)
(-0.00146803 -0.00476431 0)
(0.00363864 0.00466395 0)
(0.00308311 0.00826894 0)
(0.000837044 0.00676079 0)
(-0.000406653 -0.000392624 0)
(-0.00293118 0.00278529 0)
(-0.00623814 0.00552971 0)
(-0.00999993 0.00724198 0)
(-0.0142161 0.00823377 0)
(-0.0188087 0.00885599 0)
(-0.0238279 0.00942892 0)
(-0.0294013 0.0102683 0)
(-0.0357422 0.0117199 0)
(-0.043116 0.0141018 0)
(-0.0517224 0.0175413 0)
(-0.0615679 0.0218391 0)
(-0.0724317 0.0265023 0)
(-0.0839135 0.0309189 0)
(-0.0954972 0.0345093 0)
(-0.106669 0.036806 0)
(-0.117056 0.0375369 0)
(-0.126405 0.036633 0)
(-0.134534 0.034155 0)
(-0.141355 0.030284 0)
(-0.146825 0.0253037 0)
(-0.150909 0.0195132 0)
(-0.153592 0.0131373 0)
(-0.154883 0.00631558 0)
(-0.154823 -0.000935806 0)
(-0.153334 -0.00855712 0)
(-0.150591 -0.0165104 0)
(-0.14648 -0.024862 0)
(-0.140947 -0.0335255 0)
(-0.133772 -0.0422534 0)
(-0.124657 -0.0505821 0)
(-0.11307 -0.0575752 0)
(-0.0984152 -0.0616665 0)
(-0.0808913 -0.0614546 0)
(-0.0604967 -0.0548574 0)
(-0.0371933 -0.0394775 0)
(-0.0140021 -0.0166937 0)
(-0.00164624 0.000783338 0)
(0.00101243 0.0084974 0)
(0.000441445 0.00805017 0)
(-0.000864717 0.00172112 0)
(-0.0044701 0.0063051 0)
(-0.00855598 0.00953587 0)
(-0.0129939 0.0116192 0)
(-0.017891 0.01301 0)
(-0.0232086 0.0140893 0)
(-0.029046 0.0152236 0)
(-0.0355514 0.0167931 0)
(-0.0429153 0.0191857 0)
(-0.0513117 0.0226772 0)
(-0.0607872 0.0272386 0)
(-0.0711907 0.0324585 0)
(-0.082202 0.0376801 0)
(-0.0934067 0.0422057 0)
(-0.104352 0.0454548 0)
(-0.114655 0.0470768 0)
(-0.124035 0.0468698 0)
(-0.132222 0.0447931 0)
(-0.139067 0.0410331 0)
(-0.144565 0.0358997 0)
(-0.148694 0.0297388 0)
(-0.151623 0.0226843 0)
(-0.153594 0.0149638 0)
(-0.154442 0.00686423 0)
(-0.154204 -0.00157806 0)
(-0.152862 -0.0103147 0)
(-0.150596 -0.0193467 0)
(-0.147357 -0.0286907 0)
(-0.143142 -0.0383693 0)
(-0.137885 -0.0484138 0)
(-0.13145 -0.0585888 0)
(-0.123516 -0.0683591 0)
(-0.113488 -0.0764784 0)
(-0.100055 -0.0804649 0)
(-0.0823605 -0.0776184 0)
(-0.0602291 -0.0650489 0)
(-0.0327335 -0.0394554 0)
(-0.00817058 -0.00887557 0)
(-0.000201407 0.00636439 0)
(0.000504298 0.00851474 0)
(-0.00126382 0.00469058 0)
(-0.00566609 0.0106097 0)
(-0.0103034 0.0141927 0)
(-0.0152419 0.0165949 0)
(-0.0206374 0.0183925 0)
(-0.0264642 0.0199784 0)
(-0.0328454 0.021742 0)
(-0.0399258 0.0240921 0)
(-0.0478518 0.0274095 0)
(-0.0567075 0.0318808 0)
(-0.0664319 0.037313 0)
(-0.0768014 0.0431293 0)
(-0.0874704 0.0485663 0)
(-0.0980412 0.0529069 0)
(-0.10817 0.0556295 0)
(-0.117505 0.0563971 0)
(-0.125691 0.0550513 0)
(-0.132552 0.05166 0)
(-0.138076 0.0465509 0)
(-0.142296 0.0400935 0)
(-0.145315 0.0325956 0)
(-0.147275 0.0244418 0)
(-0.148078 0.0158225 0)
(-0.147884 0.00676972 0)
(-0.146987 -0.00256015 0)
(-0.145538 -0.0121038 0)
(-0.143479 -0.0219177 0)
(-0.140944 -0.0320683 0)
(-0.137927 -0.0425895 0)
(-0.134383 -0.0534591 0)
(-0.130155 -0.064522 0)
(-0.124925 -0.0753934 0)
(-0.118123 -0.0855029 0)
(-0.109126 -0.093617 0)
(-0.096462 -0.0966204 0)
(-0.0784012 -0.0899633 0)
(-0.0539099 -0.0692549 0)
(-0.0208062 -0.0297585 0)
(-0.00188209 -2.86432e-05 0)
(0.000872301 0.00848818 0)
(-0.00155906 0.0082823 0)
(-0.00649682 0.0154626 0)
(-0.0114904 0.0193082 0)
(-0.0167559 0.021985 0)
(-0.0224628 0.0241753 0)
(-0.0285839 0.0262729 0)
(-0.0352473 0.02867 0)
(-0.0425797 0.0317736 0)
(-0.0506783 0.0359221 0)
(-0.0595558 0.0411964 0)
(-0.0690917 0.0472588 0)
(-0.0790296 0.053407 0)
(-0.0890352 0.0588151 0)
(-0.0987751 0.0627876 0)
(-0.107889 0.0648066 0)
(-0.116 0.0645222 0)
(-0.122812 0.0618868 0)
(-0.128264 0.0571686 0)
(-0.132406 0.0507836 0)
(-0.135283 0.0431158 0)
(-0.137031 0.0345319 0)
(-0.137734 0.0253618 0)
(-0.13756 0.0158173 0)
(-0.136796 0.00607397 0)
(-0.135507 -0.00376054 0)
(-0.133805 -0.0137063 0)
(-0.131787 -0.0238313 0)
(-0.129584 -0.0342206 0)
(-0.127259 -0.044992 0)
(-0.124831 -0.0562397 0)
(-0.122213 -0.0679683 0)
(-0.119178 -0.0799864 0)
(-0.115276 -0.0917421 0)
(-0.109711 -0.102158 0)
(-0.1013 -0.109304 0)
(-0.088462 -0.109655 0)
(-0.0691032 -0.0969483 0)
(-0.0401857 -0.0635317 0)
(-0.00724195 -0.0136969 0)
(0.00124162 0.00745952 0)
(-0.00173981 0.0122841 0)
(-0.00697474 0.0206519 0)
(-0.0121491 0.0246994 0)
(-0.017573 0.0276099 0)
(-0.0234073 0.0301611 0)
(-0.0296169 0.0327412 0)
(-0.0363215 0.0357296 0)
(-0.0436222 0.039508 0)
(-0.0515703 0.0443536 0)
(-0.0601292 0.0502435 0)
(-0.0691489 0.0567222 0)
(-0.0783719 0.0629949 0)
(-0.0874953 0.0682055 0)
(-0.0961908 0.071641 0)
(-0.104092 0.0727576 0)
(-0.11085 0.0712858 0)
(-0.116275 0.0673302 0)
(-0.120392 0.0613161 0)
(-0.123264 0.0536962 0)
(-0.124985 0.044888 0)
(-0.125747 0.035314 0)
(-0.125707 0.0253134 0)
(-0.125018 0.0151224 0)
(-0.123838 0.00488091 0)
(-0.122262 -0.00534021 0)
(-0.120408 -0.015543 0)
(-0.118401 -0.0257949 0)
(-0.116371 -0.0361997 0)
(-0.11442 -0.0469051 0)
(-0.112615 -0.0580665 0)
(-0.110934 -0.0697956 0)
(-0.109223 -0.0820961 0)
(-0.107141 -0.0947352 0)
(-0.104073 -0.107 0)
(-0.0989907 -0.117349 0)
(-0.0904127 -0.122922 0)
(-0.0765502 -0.118508 0)
(-0.0547535 -0.0952358 0)
(-0.0180827 -0.0380221 0)
(0.00156089 0.00433884 0)
(-0.00180956 0.0164885 0)
(-0.00712829 0.0259811 0)
(-0.012324 0.0301937 0)
(-0.0177481 0.0332972 0)
(-0.023537 0.0361624 0)
(-0.029646 0.0391702 0)
(-0.0361772 0.042675 0)
(-0.0432031 0.0470177 0)
(-0.0507366 0.0524073 0)
(-0.0587104 0.058731 0)
(-0.0669676 0.0654427 0)
(-0.0752652 0.0716759 0)
(-0.0833223 0.0765358 0)
(-0.0908301 0.0792851 0)
(-0.0974481 0.0793995 0)
(-0.102892 0.076716 0)
(-0.107085 0.0714993 0)
(-0.110096 0.06428 0)
(-0.112008 0.0555431 0)
(-0.112966 0.0457685 0)
(-0.113156 0.0354008 0)
(-0.112711 0.0247577 0)
(-0.111748 0.014052 0)
(-0.11037 0.00341005 0)
(-0.108674 -0.00710147 0)
(-0.106771 -0.0174749 0)
(-0.104789 -0.0277651 0)
(-0.10286 -0.0380826 0)
(-0.101114 -0.0485976 0)
(-0.0996508 -0.0595205 0)
(-0.0985076 -0.0710615 0)
(-0.0976083 -0.0833526 0)
(-0.0966967 -0.0963486 0)
(-0.0952489 -0.109637 0)
(-0.0923782 -0.122111 0)
(-0.086764 -0.131486 0)
(-0.0768706 -0.133365 0)
(-0.0605498 -0.120342 0)
(-0.0333262 -0.0773166 0)
(-0.000872874 -0.00774316 0)
(-0.0017783 0.0206967 0)
(-0.00699841 0.0312766 0)
(-0.0120688 0.0356323 0)
(-0.0173482 0.0388868 0)
(-0.0229369 0.0420078 0)
(-0.0287788 0.0453689 0)
(-0.0349527 0.0492924 0)
(-0.0415031 0.0540711 0)
(-0.0484109 0.0598485 0)
(-0.0555958 0.0664365 0)
(-0.062908 0.0732219 0)
(-0.0701255 0.0792794 0)
(-0.0770059 0.0836773 0)
(-0.0832726 0.0856729 0)
(-0.0886526 0.0847885 0)
(-0.0929392 0.0809725 0)
(-0.0961336 0.0746321 0)
(-0.0983276 0.0663653 0)
(-0.0996172 0.0566984 0)
(-0.100151 0.0461493 0)
(-0.100074 0.0351464 0)
(-0.0994794 0.0239773 0)
(-0.0984451 0.0128375 0)
(-0.0970447 0.00185304 0)
(-0.095359 -0.00890167 0)
(-0.0934875 -0.0194046 0)
(-0.0915504 -0.0296933 0)
(-0.089685 -0.0398716 0)
(-0.0880342 -0.0501164 0)
(-0.086726 -0.060673 0)
(-0.0858416 -0.0718328 0)
(-0.0853717 -0.0838714 0)
(-0.0851596 -0.0969407 0)
(-0.0847981 -0.110902 0)
(-0.0834971 -0.124983 0)
(-0.0799856 -0.137266 0)
(-0.0729578 -0.143657 0)
(-0.0608912 -0.138106 0)
(-0.0419015 -0.107298 0)
(-0.00793255 -0.0211853 0)
(-0.00167152 0.0247657 0)
(-0.00661923 0.036371 0)
(-0.0114429 0.0408701 0)
(-0.0164505 0.0442369 0)
(-0.021705 0.0475502 0)
(-0.0271381 0.0511799 0)
(-0.0328032 0.0554142 0)
(-0.0387193 0.0604948 0)
(-0.0448409 0.0665009 0)
(-0.0510898 0.0731928 0)
(-0.0573318 0.0799232 0)
(-0.0633791 0.0857059 0)
(-0.0690347 0.0895927 0)
(-0.0740904 0.090852 0)
(-0.0783406 0.0890611 0)
(-0.0816616 0.0842686 0)
(-0.084095 0.076994 0)
(-0.0857364 0.0678745 0)
(-0.0866743 0.0574715 0)
(-0.0870294 0.0463085 0)
(-0.0868966 0.034787 0)
(-0.0863291 0.0231715 0)
(-0.0853724 0.0116469 0)
(-0.0840748 0.000344948 0)
(-0.0824999 -0.0106446 0)
(-0.0807337 -0.021278 0)
(-0.078889 -0.0315701 0)
(-0.0771019 -0.0416092 0)
(-0.0755216 -0.0515713 0)
(-0.0742917 -0.0617247 0)
(-0.0735219 -0.0724171 0)
(-0.073248 -0.084034 0)
(-0.0733834 -0.0969027 0)
(-0.0736419 -0.11115 0)
(-0.0733533 -0.12641 0)
(-0.0712945 -0.141285 0)
(-0.0663139 -0.151488 0)
(-0.0569446 -0.152218 0)
(-0.0409381 -0.130738 0)
(-0.0146032 -0.054048 0)
(-0.00149104 0.028536 0)
(-0.0060342 0.0411367 0)
(-0.0105148 0.0457886 0)
(-0.0151456 0.0492323 0)
(-0.0199588 0.0526678 0)
(-0.0248716 0.0564712 0)
(-0.0299111 0.0608977 0)
(-0.0350722 0.066138 0)
(-0.0402949 0.0722212 0)
(-0.0455134 0.0788908 0)
(-0.0506081 0.0854649 0)
(-0.0554446 0.0909171 0)
(-0.0598798 0.0942961 0)
(-0.0637842 0.0949108 0)
(-0.0670304 0.092371 0)
(-0.0695583 0.0868085 0)
(-0.0714231 0.0788107 0)
(-0.0727086 0.069039 0)
(-0.0734776 0.0580753 0)
(-0.0738086 0.0464313 0)
(-0.0737493 0.0344821 0)
(-0.0733196 0.0224767 0)
(-0.072538 0.0105977 0)
(-0.0714318 -0.00101245 0)
(-0.0700474 -0.0122433 0)
(-0.0684588 -0.0230239 0)
(-0.0667717 -0.0333414 0)
(-0.0651189 -0.043263 0)
(-0.0636498 -0.0529577 0)
(-0.0625134 -0.0627082 0)
(-0.0618347 -0.0729085 0)
(-0.0616808 -0.0840345 0)
(-0.0620121 -0.0965652 0)
(-0.0626294 -0.110834 0)
(-0.0630112 -0.12681 0)
(-0.062125 -0.14354 0)
(-0.0582319 -0.157873 0)
(-0.051244 -0.163049 0)
(-0.0374702 -0.151087 0)
(-0.0137083 -0.0866452 0)
(-0.00124685 0.0318845 0)
(-0.00529675 0.0454786 0)
(-0.00935311 0.0502859 0)
(-0.0135224 0.0537651 0)
(-0.0178115 0.0572519 0)
(-0.0221263 0.0611335 0)
(-0.026464 0.0656347 0)
(-0.0307999 0.070905 0)
(-0.0350631 0.0769397 0)
(-0.0391905 0.0834696 0)
(-0.0430989 0.0897945 0)
(-0.0467254 0.0949099 0)
(-0.0499826 0.0978581 0)
(-0.0527837 0.0979442 0)
(-0.055123 0.0948503 0)
(-0.056981 0.0887465 0)
(-0.0584024 0.0802411 0)
(-0.059449 0.0700098 0)
(-0.0601491 0.0586401 0)
(-0.0605356 0.0466265 0)
(-0.0606178 0.0343243 0)
(-0.0603879 0.0219759 0)
(-0.0598418 0.00976773 0)
(-0.0589884 -0.00214328 0)
(-0.0578601 -0.013622 0)
(-0.0565201 -0.0245657 0)
(-0.0550674 -0.03493 0)
(-0.0536298 -0.0447592 0)
(-0.0523518 -0.054213 0)
(-0.0513789 -0.0635828 0)
(-0.0508392 -0.0732968 0)
(-0.0508161 -0.083905 0)
(-0.0513033 -0.0960214 0)
(-0.0521486 -0.110179 0)
(-0.0529647 -0.126637 0)
(-0.052858 -0.144873 0)
(-0.0500934 -0.162781 0)
(-0.0446818 -0.171549 0)
(-0.0329403 -0.166496 0)
(-0.0119353 -0.111678 0)
(-0.000951133 0.0347172 0)
(-0.00443525 0.0493164 0)
(-0.00799963 0.0542841 0)
(-0.0116496 0.0577726 0)
(-0.0153641 0.0612532 0)
(-0.0190333 0.0651248 0)
(-0.0226293 0.0695905 0)
(-0.0261104 0.0747681 0)
(-0.0293984 0.0806292 0)
(-0.0324295 0.0869079 0)
(-0.0351636 0.092934 0)
(-0.0376604 0.0977793 0)
(-0.0396427 0.100229 0)
(-0.0414117 0.100012 0)
(-0.0429285 0.0965889 0)
(-0.0441811 0.0901737 0)
(-0.0452177 0.081371 0)
(-0.0460693 0.0708598 0)
(-0.0467325 0.0592237 0)
(-0.0471976 0.0469415 0)
(-0.0474426 0.0343581 0)
(-0.0474375 0.0217153 0)
(-0.04716 0.00920729 0)
(-0.0466036 -0.00299014 0)
(-0.0457882 -0.0147137 0)
(-0.0447678 -0.0258259 0)
(-0.043634 -0.0362486 0)
(-0.0425079 -0.0460032 0)
(-0.0415254 -0.0552406 0)
(-0.0408218 -0.06426 0)
(-0.0405182 -0.0735155 0)
(-0.0407027 -0.0836142 0)
(-0.0413928 -0.0952817 0)
(-0.0424713 -0.109239 0)
(-0.0436408 -0.125989 0)
(-0.044149 -0.145422 0)
(-0.0426651 -0.165906 0)
(-0.0376463 -0.179903 0)
(-0.028674 -0.180383 0)
(-0.0101121 -0.134723 0)
(-0.000627081 0.0369691 0)
(-0.0034944 0.0525935 0)
(-0.00652299 0.0577369 0)
(-0.0096113 0.061216 0)
(-0.0127149 0.0646328 0)
(-0.0157131 0.068411 0)
(-0.0185568 0.0727403 0)
(-0.0211892 0.0777144 0)
(-0.0235276 0.0832928 0)
(-0.0255022 0.0892285 0)
(-0.0271034 0.0949084 0)
(-0.0284383 0.0994631 0)
(-0.0292835 0.1015 0)
(-0.0300103 0.101149 0)
(-0.0307239 0.0976245 0)
(-0.0313716 0.0911187 0)
(-0.032018 0.0822198 0)
(-0.0326585 0.0715976 0)
(-0.0332621 0.0598282 0)
(-0.0337847 0.0473786 0)
(-0.0341779 0.0345907 0)
(-0.0343942 0.0217121 0)
(-0.0343979 0.00894801 0)
(-0.0341705 -0.00350587 0)
(-0.03372 -0.0154548 0)
(-0.0330912 -0.0267245 0)
(-0.0323665 -0.0372022 0)
(-0.0316567 -0.0468875 0)
(-0.0310848 -0.0559249 0)
(-0.0307708 -0.0646225 0)
(-0.0308212 -0.0734553 0)
(-0.0313196 -0.083073 0)
(-0.032297 -0.0942909 0)
(-0.0336695 -0.107998 0)
(-0.0351791 -0.124924 0)
(-0.0362136 -0.145299 0)
(-0.035657 -0.16788 0)
(-0.0314535 -0.186449 0)
(-0.0248857 -0.190908 0)
(-0.00860439 -0.152857 0)
(-0.000292832 0.0386067 0)
(-0.00252567 0.0552669 0)
(-0.00499034 0.0606002 0)
(-0.00749782 0.0640523 0)
(-0.00997908 0.0673607 0)
(-0.0123061 0.0709797 0)
(-0.0144113 0.0750905 0)
(-0.0162257 0.0797693 0)
(-0.0176642 0.0849724 0)
(-0.0186491 0.0904793 0)
(-0.0191816 0.0957537 0)
(-0.019333 0.0999508 0)
(-0.0191844 0.101783 0)
(-0.0189396 0.10137 0)
(-0.0187851 0.0979285 0)
(-0.0187749 0.0915439 0)
(-0.0189676 0.0827475 0)
(-0.0193322 0.0721804 0)
(-0.0198116 0.0604125 0)
(-0.0203352 0.0479044 0)
(-0.0208333 0.0350014 0)
(-0.0212452 0.0219621 0)
(-0.0215254 0.0090064 0)
(-0.0216474 -0.00365007 0)
(-0.0216093 -0.0157823 0)
(-0.0214445 -0.0271778 0)
(-0.0212227 -0.0376902 0)
(-0.0210373 -0.0473 0)
(-0.0209918 -0.0561458 0)
(-0.0211866 -0.0645475 0)
(-0.0217089 -0.072997 0)
(-0.0226322 -0.0821733 0)
(-0.0239965 -0.0929604 0)
(-0.0257524 -0.106396 0)
(-0.0276707 -0.12343 0)
(-0.0292553 -0.144588 0)
(-0.0294802 -0.168913 0)
(-0.0265883 -0.191996 0)
(-0.0209454 -0.20094 0)
(-0.00740428 -0.169278 0)
(9.38187e-06 0.0396418 0)
(-0.00155961 0.0573238 0)
(-0.00345262 0.0628627 0)
(-0.00537676 0.0662797 0)
(-0.00724372 0.0694468 0)
(-0.0089207 0.0728532 0)
(-0.0103248 0.0766793 0)
(-0.0113765 0.0809901 0)
(-0.0119889 0.0857432 0)
(-0.012079 0.090743 0)
(-0.0116406 0.0955331 0)
(-0.0107296 0.0993491 0)
(-0.00960561 0.101119 0)
(-0.00841405 0.100683 0)
(-0.00737733 0.0974493 0)
(-0.00663903 0.0913693 0)
(-0.00628038 0.082865 0)
(-0.00626847 0.0725231 0)
(-0.00652768 0.0609006 0)
(-0.00696883 0.0484569 0)
(-0.0075063 0.0355461 0)
(-0.00806894 0.0224429 0)
(-0.00860529 0.0093852 0)
(-0.00908476 -0.00339143 0)
(-0.00949761 -0.015637 0)
(-0.00986408 -0.0271026 0)
(-0.0102367 -0.037611 0)
(-0.0106789 -0.0471295 0)
(-0.0112662 -0.0557882 0)
(-0.0120755 -0.0639211 0)
(-0.0131715 -0.0720309 0)
(-0.0146159 -0.0808128 0)
(-0.0164537 -0.0911984 0)
(-0.0186644 -0.104347 0)
(-0.0210519 -0.121436 0)
(-0.023189 -0.143256 0)
(-0.0240585 -0.169126 0)
(-0.0223388 -0.19569 0)
(-0.0181784 -0.208626 0)
(-0.00635557 -0.182546 0)
(0.000381429 0.0400262 0)
(-0.000625761 0.0587628 0)
(-0.00194868 0.0645302 0)
(-0.00330435 0.0679114 0)
(-0.00458004 0.0709153 0)
(-0.00564217 0.0740713 0)
(-0.00639726 0.077564 0)
(-0.00675842 0.081453 0)
(-0.00663658 0.0856996 0)
(-0.0059493 0.0901344 0)
(-0.00467198 0.0943808 0)
(-0.00287613 0.0977831 0)
(-0.000799056 0.0994892 0)
(0.00130354 0.0990831 0)
(0.00321791 0.0961399 0)
(0.00474693 0.090502 0)
(0.00576175 0.082458 0)
(0.0062701 0.0725126 0)
(0.00634642 0.0611914 0)
(0.0060895 0.0489519 0)
(0.00559481 0.0361615 0)
(0.00494064 0.0231153 0)
(0.00418211 0.0100724 0)
(0.00335098 -0.00271255 0)
(0.0024633 -0.0149703 0)
(0.00151378 -0.0264237 0)
(0.00047203 -0.0368747 0)
(-0.000680654 -0.0462715 0)
(-0.00198326 -0.0547545 0)
(-0.00348795 -0.0626523 0)
(-0.00523219 -0.0704707 0)
(-0.00726761 -0.0789115 0)
(-0.00964383 -0.0889361 0)
(-0.0123642 -0.101805 0)
(-0.015275 -0.118913 0)
(-0.0179857 -0.141337 0)
(-0.0195463 -0.168814 0)
(-0.0188926 -0.19832 0)
(-0.0157293 -0.215598 0)
(-0.00556529 -0.194765 0)
(0.000541544 0.0398674 0)
(0.000216463 0.0595873 0)
(-0.000532287 0.0656117 0)
(-0.00133755 0.0689664 0)
(-0.00205224 0.0717983 0)
(-0.00254376 0.0746815 0)
(-0.0027111 0.0778113 0)
(-0.00246285 0.0812457 0)
(-0.00170919 0.0849512 0)
(-0.000370936 0.0887853 0)
(0.00159285 0.0924429 0)
(0.00411634 0.0953961 0)
(0.00698921 0.0969459 0)
(0.00993514 0.0965971 0)
(0.0127049 0.0939699 0)
(0.0150548 0.0888598 0)
(0.0168089 0.0814123 0)
(0.0179261 0.0720218 0)
(0.0184586 0.0611662 0)
(0.0184967 0.0492896 0)
(0.0181365 0.0367705 0)
(0.0174599 0.0239263 0)
(0.0165251 0.0110398 0)
(0.0153642 -0.00161775 0)
(0.0139985 -0.013756 0)
(0.0124421 -0.0250924 0)
(0.010704 -0.0354182 0)
(0.00879756 -0.0446654 0)
(0.00672863 -0.0529796 0)
(0.00448892 -0.0606786 0)
(0.00205973 -0.0682587 0)
(-0.000600379 -0.0764162 0)
(-0.00354558 -0.0861261 0)
(-0.0068014 -0.0987269 0)
(-0.010258 -0.115817 0)
(-0.0135442 -0.138748 0)
(-0.0158087 -0.167631 0)
(-0.0161021 -0.199811 0)
(-0.0139723 -0.22099 0)
(-0.00489708 -0.204977 0)
(0.000723242 0.0393001 0)
(0.00098298 0.0598292 0)
(0.000771626 0.0661313 0)
(0.00048703 0.0694749 0)
(0.000292204 0.072137 0)
(0.00031956 0.0747405 0)
(0.00067393 0.0774957 0)
(0.00144732 0.0804637 0)
(0.00272781 0.0836169 0)
(0.00459167 0.086837 0)
(0.00708395 0.0898811 0)
(0.0101618 0.0923347 0)
(0.013652 0.0936431 0)
(0.0172948 0.0933083 0)
(0.0208173 0.0909726 0)
(0.0239532 0.086404 0)
(0.0264767 0.0796356 0)
(0.0282811 0.0709364 0)
(0.0293681 0.0607047 0)
(0.0298032 0.0493596 0)
(0.029671 0.0372824 0)
(0.0290488 0.0248077 0)
(0.0279948 0.0122432 0)
(0.0265529 -0.00012434 0)
(0.0247438 -0.0119991 0)
(0.0225996 -0.0231014 0)
(0.0201753 -0.0332234 0)
(0.0175266 -0.0422977 0)
(0.0147083 -0.0504499 0)
(0.0117482 -0.0579865 0)
(0.00864612 -0.0653831 0)
(0.00536916 -0.0733135 0)
(0.00185875 -0.0827529 0)
(-0.00193518 -0.0951079 0)
(-0.00594002 -0.112163 0)
(-0.00980085 -0.135561 0)
(-0.0127454 -0.165784 0)
(-0.0138793 -0.200523 0)
(-0.0125878 -0.225759 0)
(-0.00443127 -0.214575 0)
(0.000900918 0.0381792 0)
(0.00166763 0.0595239 0)
(0.0019441 0.0661322 0)
(0.00213774 0.0694797 0)
(0.002417 0.0719805 0)
(0.00290898 0.0743086 0)
(0.00371856 0.0766931 0)
(0.00493549 0.0792011 0)
(0.00664323 0.0818128 0)
(0.00891319 0.0844303 0)
(0.0117896 0.0868605 0)
(0.0152493 0.0887835 0)
(0.0191676 0.089772 0)
(0.0233098 0.0893807 0)
(0.0274125 0.0872577 0)
(0.0312057 0.0831807 0)
(0.0344318 0.0771009 0)
(0.0369253 0.0691765 0)
(0.0386192 0.0597069 0)
(0.0395258 0.0490592 0)
(0.0397021 0.0376008 0)
(0.039213 0.0256758 0)
(0.0381152 0.0136113 0)
(0.036458 0.0017067 0)
(0.0342727 -0.0097557 0)
(0.0316214 -0.0205033 0)
(0.0285938 -0.0303433 0)
(0.0252866 -0.0392118 0)
(0.0217969 -0.0472128 0)
(0.0181862 -0.0546213 0)
(0.0144716 -0.0618799 0)
(0.0106248 -0.0696295 0)
(0.00658145 -0.078833 0)
(0.00227696 -0.090952 0)
(-0.00224706 -0.107952 0)
(-0.00666497 -0.131764 0)
(-0.0102507 -0.163227 0)
(-0.0121422 -0.200369 0)
(-0.011639 -0.229543 0)
(-0.00406048 -0.222966 0)
(0.00101264 0.0367385 0)
(0.00223491 0.0587409 0)
(0.0029593 0.065658 0)
(0.0035894 0.0690253 0)
(0.00429552 0.0713797 0)
(0.00519837 0.0734464 0)
(0.00639999 0.0754761 0)
(0.00798565 0.0775451 0)
(0.010032 0.0796428 0)
(0.0126032 0.0816898 0)
(0.01574 0.0835323 0)
(0.0194314 0.0849245 0)
(0.0235908 0.0855385 0)
(0.0280293 0.0850169 0)
(0.0325032 0.083022 0)
(0.0367502 0.0793437 0)
(0.0405174 0.0738988 0)
(0.0435937 0.0667577 0)
(0.045853 0.0581323 0)
(0.0472468 0.0483172 0)
(0.0477822 0.0376424 0)
(0.0474965 0.0264423 0)
(0.0464383 0.0150506 0)
(0.0446637 0.00376875 0)
(0.0422211 -0.00713834 0)
(0.0391995 -0.0174196 0)
(0.0357166 -0.0269013 0)
(0.0318991 -0.0355244 0)
(0.027874 -0.0433696 0)
(0.0237299 -0.0506709 0)
(0.0194996 -0.0578218 0)
(0.0151598 -0.0654219 0)
(0.0106462 -0.0744154 0)
(0.00588383 -0.0862997 0)
(0.000878369 -0.103216 0)
(-0.00405363 -0.127415 0)
(-0.00823583 -0.16007 0)
(-0.0107919 -0.199556 0)
(-0.0109835 -0.232918 0)
(-0.00382715 -0.231063 0)
(0.00106577 0.0350216 0)
(0.00267751 0.0575301 0)
(0.0038027 0.0647521 0)
(0.00482534 0.0681564 0)
(0.00591112 0.0703842 0)
(0.00717332 0.0722108 0)
(0.008709 0.0739107 0)
(0.0105975 0.0755725 0)
(0.0129072 0.0771963 0)
(0.0156937 0.0787198 0)
(0.0189915 0.0800209 0)
(0.0227962 0.0809108 0)
(0.0270414 0.081138 0)
(0.0315902 0.0804242 0)
(0.036232 0.0784878 0)
(0.0407182 0.0751165 0)
(0.0448109 0.0702193 0)
(0.0482882 0.0638162 0)
(0.0509816 0.0560452 0)
(0.052791 0.0471337 0)
(0.0536752 0.0373616 0)
(0.0536351 0.0270302 0)
(0.0527013 0.0164586 0)
(0.0509308 0.00593706 0)
(0.0483847 -0.00429707 0)
(0.0451678 -0.0140178 0)
(0.0414164 -0.0230704 0)
(0.0372733 -0.0314017 0)
(0.0328845 -0.0390697 0)
(0.0283558 -0.0462609 0)
(0.0237302 -0.0533106 0)
(0.0189958 -0.0607726 0)
(0.0140964 -0.0695669 0)
(0.0089447 -0.0812137 0)
(0.00351773 -0.098004 0)
(-0.0018915 -0.122535 0)
(-0.00662419 -0.156337 0)
(-0.00973772 -0.198001 0)
(-0.0105877 -0.235779 0)
(-0.003643 -0.238508 0)
(0.00106878 0.0331115 0)
(0.00299352 0.0559523 0)
(0.00446698 0.0634634 0)
(0.00583582 0.0669191 0)
(0.00725501 0.0690425 0)
(0.00882845 0.0706544 0)
(0.0106465 0.0720553 0)
(0.0127819 0.0733484 0)
(0.0152941 0.0745459 0)
(0.0182292 0.0756018 0)
(0.0216142 0.0764206 0)
(0.0254452 0.0768569 0)
(0.0296703 0.0767191 0)
(0.0341845 0.0757887 0)
(0.0388213 0.0738529 0)
(0.0433601 0.0707197 0)
(0.0475737 0.066286 0)
(0.0512517 0.0605499 0)
(0.0542092 0.0535975 0)
(0.0563133 0.0455984 0)
(0.0574846 0.0367799 0)
(0.0576909 0.0273991 0)
(0.0569411 0.0177422 0)
(0.0552821 0.00807496 0)
(0.0527818 -0.00139786 0)
(0.0495453 -0.0104829 0)
(0.0457122 -0.0190433 0)
(0.0414331 -0.0270311 0)
(0.0368573 -0.0344816 0)
(0.0320938 -0.0415323 0)
(0.0271996 -0.0484642 0)
(0.022183 -0.0557827 0)
(0.0169935 -0.0643689 0)
(0.011531 -0.0757533 0)
(0.00574693 -0.0923748 0)
(-0.000106505 -0.117185 0)
(-0.00533948 -0.152101 0)
(-0.00891789 -0.195932 0)
(-0.0105655 -0.23825 0)
(-0.00331224 -0.245972 0)
(0.0010283 0.031094 0)
(0.00318407 0.0540772 0)
(0.00494928 0.0618451 0)
(0.00661616 0.0653604 0)
(0.00832403 0.0674001 0)
(0.0101646 0.0688244 0)
(0.0122203 0.0699595 0)
(0.0145568 0.0709253 0)
(0.0172243 0.0717473 0)
(0.0202594 0.0723954 0)
(0.0236813 0.0727969 0)
(0.0274834 0.0728402 0)
(0.0316233 0.0723796 0)
(0.0360121 0.0712473 0)
(0.0405182 0.0692801 0)
(0.0449659 0.0663288 0)
(0.0491449 0.0622916 0)
(0.0528553 0.0571471 0)
(0.0559193 0.0509524 0)
(0.0581877 0.0438307 0)
(0.0595601 0.0359594 0)
(0.0599811 0.02755 0)
(0.0594395 0.0188454 0)
(0.0579659 0.0100766 0)
(0.0556251 0.00141573 0)
(0.0525108 -0.00698204 0)
(0.0487542 -0.014996 0)
(0.0444999 -0.022583 0)
(0.0398842 -0.0297588 0)
(0.0350213 -0.0366217 0)
(0.0299863 -0.0434048 0)
(0.0247987 -0.0505576 0)
(0.0194121 -0.058912 0)
(0.013722 -0.0699973 0)
(0.00764954 -0.0863897 0)
(0.0014211 -0.111403 0)
(-0.00427638 -0.147379 0)
(-0.00824139 -0.193397 0)
(-0.0106424 -0.240207 0)
(-0.00308275 -0.253261 0)
(0.00095181 0.0290486 0)
(0.00325353 0.0519774 0)
(0.00525034 0.0599533 0)
(0.00716553 0.0635276 0)
(0.00911873 0.0654999 0)
(0.0111865 0.0667622 0)
(0.0134422 0.0676645 0)
(0.0159435 0.0683442 0)
(0.0187315 0.0688411 0)
(0.021834 0.0691406 0)
(0.0252619 0.0691898 0)
(0.029005 0.0689047 0)
(0.0330247 0.0681755 0)
(0.037246 0.0668758 0)
(0.0415586 0.0648771 0)
(0.0458196 0.0620703 0)
(0.0498558 0.0583725 0)
(0.0534819 0.0537527 0)
(0.0565303 0.0482444 0)
(0.0588583 0.0419373 0)
(0.0603523 0.0349681 0)
(0.0609414 0.0275033 0)
(0.0606022 0.0197421 0)
(0.0593493 0.0118734 0)
(0.0572352 0.0040405 0)
(0.0543355 -0.00363851 0)
(0.0507638 -0.0110624 0)
(0.0466468 -0.0181908 0)
(0.042109 -0.0250308 0)
(0.0372674 -0.0316539 0)
(0.0322017 -0.0382457 0)
(0.0269383 -0.0451953 0)
(0.0214411 -0.0532816 0)
(0.0156009 -0.0640179 0)
(0.00931017 -0.0800964 0)
(0.00275001 -0.105218 0)
(-0.00339792 -0.142226 0)
(-0.00766989 -0.190486 0)
(-0.0109265 -0.241835 0)
(-0.00270724 -0.260758 0)
(0.000846741 0.0270485 0)
(0.00320864 0.0497281 0)
(0.00537345 0.0578465 0)
(0.0074857 0.0614679 0)
(0.009642 0.0633821 0)
(0.0119012 0.0645037 0)
(0.0143256 0.0652032 0)
(0.0169643 0.0656353 0)
(0.0198491 0.0658545 0)
(0.0229992 0.0658612 0)
(0.0264182 0.0656201 0)
(0.0300913 0.0650696 0)
(0.0339814 0.0641281 0)
(0.0380239 0.0627013 0)
(0.0421232 0.0606924 0)
(0.0461601 0.0580172 0)
(0.049993 0.0546156 0)
(0.0534652 0.0504599 0)
(0.0564209 0.0455672 0)
(0.0587269 0.0400033 0)
(0.0602796 0.0338698 0)
(0.0609842 0.0272881 0)
(0.060833 0.0204299 0)
(0.0598082 0.0134342 0)
(0.0579487 0.00641934 0)
(0.0553119 -0.000527859 0)
(0.0519886 -0.00732972 0)
(0.0480862 -0.0139526 0)
(0.0437161 -0.020403 0)
(0.0389853 -0.0267309 0)
(0.0339727 -0.0330791 0)
(0.0287135 -0.0397809 0)
(0.0231805 -0.0475563 0)
(0.0172597 -0.05789 0)
(0.0108159 -0.0735728 0)
(0.00397306 -0.0986778 0)
(-0.00260907 -0.136617 0)
(-0.00710371 -0.187179 0)
(-0.0113249 -0.243046 0)
(-0.00228969 -0.268363 0)
(0.000719233 0.025159 0)
(0.00305666 0.047406 0)
(0.00532275 0.0555855 0)
(0.00757942 0.0592286 0)
(0.00989759 0.0610843 0)
(0.0123162 0.0620797 0)
(0.014884 0.0626014 0)
(0.0176404 0.0628198 0)
(0.0206077 0.0628039 0)
(0.0237965 0.0625681 0)
(0.0272035 0.0620929 0)
(0.0308098 0.0613353 0)
(0.0345783 0.0602357 0)
(0.0384509 0.058725 0)
(0.0423461 0.0567317 0)
(0.0461603 0.0541917 0)
(0.0497758 0.0510609 0)
(0.0530633 0.0473192 0)
(0.0558908 0.0429776 0)
(0.0581337 0.0380805 0)
(0.0596937 0.0327067 0)
(0.0605055 0.0269573 0)
(0.0604979 0.0209274 0)
(0.0596855 0.0147579 0)
(0.0580813 0.00853352 0)
(0.0557249 0.00231274 0)
(0.0526833 -0.00385145 0)
(0.0490432 -0.00993561 0)
(0.0448966 -0.0159477 0)
(0.0403359 -0.0219246 0)
(0.0354375 -0.0279767 0)
(0.0302443 -0.0343851 0)
(0.0247384 -0.0418054 0)
(0.0188052 -0.0516787 0)
(0.0122787 -0.066871 0)
(0.00521156 -0.0918377 0)
(-0.00178741 -0.130599 0)
(-0.00648947 -0.183544 0)
(-0.0118713 -0.243864 0)
(-0.00166195 -0.276263 0)
(0.000573381 0.0234391 0)
(0.00280378 0.0450894 0)
(0.00510129 0.0532334 0)
(0.00744858 0.0568575 0)
(0.00988844 0.0586421 0)
(0.0124377 0.0595165 0)
(0.0151293 0.0598781 0)
(0.0179906 0.0599106 0)
(0.0210337 0.0596962 0)
(0.0242609 0.0592622 0)
(0.0276622 0.0586026 0)
(0.0312148 0.0576897 0)
(0.0348811 0.0564814 0)
(0.0386074 0.0549276 0)
(0.0423228 0.0529766 0)
(0.0459394 0.0505817 0)
(0.0493553 0.0477087 0)
(0.0524626 0.0443448 0)
(0.0551519 0.040498 0)
(0.0573185 0.0362008 0)
(0.0588674 0.0315087 0)
(0.0597346 0.0264982 0)
(0.0598703 0.0212498 0)
(0.0592573 0.0158546 0)
(0.0579021 0.0103808 0)
(0.0558291 0.00486746 0)
(0.0530836 -0.0006556 0)
(0.0497286 -0.00617677 0)
(0.0458356 -0.0117083 0)
(0.0414817 -0.0172829 0)
(0.036738 -0.022989 0)
(0.0316526 -0.0290613 0)
(0.0262194 -0.0360874 0)
(0.0203269 -0.0454461 0)
(0.0137762 -0.0600416 0)
(0.00654886 -0.0846835 0)
(-0.000898707 -0.124129 0)
(-0.0057486 -0.179599 0)
(-0.0125274 -0.244173 0)
(-0.000817482 -0.284306 0)
(0.000409487 0.0219416 0)
(0.00245013 0.0428555 0)
(0.004707 0.0508541 0)
(0.00709115 0.0544014 0)
(0.00961431 0.0560883 0)
(0.0122692 0.0568361 0)
(0.0150698 0.0570466 0)
(0.0180291 0.0569138 0)
(0.0211482 0.0565309 0)
(0.0244206 0.0559362 0)
(0.0278298 0.0551349 0)
(0.0313492 0.0541117 0)
(0.0349405 0.0528379 0)