/*--------------------------------*- C++ -*----------------------------------*\
  =========                 |
  \\      /  F ield         | OpenFOAM: The Open Source CFD Toolbox
   \\    /   O peration     | Website:  https://openfoam.org
    \\  /    A nd           | Version:  12
     \\/     M anipulation  |
\*---------------------------------------------------------------------------*/
FoamFile
{
    format      ascii;
    class       volScalarField;
    location    "9.5";
    object      epsilon;
}
// * * * * * * * * * * * * * * * * * * * * * * * * * * * * * * * * * * * * * //

dimensions      [0 2 -3 0 0 0 0];

internalField   nonuniform List<scalar> 
1600
(
3.13522e-05
0.000103143
0.000196968
0.000194861
0.000177293
0.000181624
0.000235691
0.000402327
0.00060449
0.000890877
0.00134612
0.00165834
0.00182336
0.00203822
0.00236531
0.00277573
0.003149
0.00358088
0.0039919
0.00446839
0.0049498
0.00550632
0.00610321
0.00680495
0.0076148
0.0083206
0.00904855
0.00966107
0.0101944
0.0104795
0.0105923
0.0103734
0.00955122
0.008151
0.0061624
0.00369905
0.0018196
0.000773215
0.000249258
5.22514e-05
0.000150963
0.00018765
0.00022568
0.000213956
0.000205562
0.000246203
0.000435336
0.000939211
0.00167803
0.0027946
0.00478299
0.00565286
0.00570878
0.00532834
0.00499291
0.00484683
0.00471231
0.00467189
0.00466449
0.0047691
0.0049067
0.00512368
0.00535667
0.00565707
0.00602018
0.00646279
0.00695704
0.00752507
0.00808451
0.00855264
0.00877008
0.00880776
0.00822482
0.00714817
0.00534765
0.00312637
0.00132855
0.000586293
0.000214271
8.71917e-05
0.000454629
0.000475737
0.000474526
0.000447301
0.000503943
0.000842253
0.00184539
0.00378273
0.00598346
0.00685552
0.0066007
0.00563003
0.00515538
0.00453751
0.00413922
0.00381982
0.00357241
0.00340916
0.00331071
0.00326813
0.00325566
0.00329645
0.00340551
0.00355817
0.00375276
0.00399158
0.00427809
0.00462372
0.0050326
0.00553076
0.00608624
0.00660769
0.00684617
0.00678359
0.00592368
0.004043
0.00131713
0.000367659
0.000134027
7.14438e-05
0.0010343
0.000920212
0.000900069
0.000958488
0.00140183
0.00273283
0.0051412
0.00677315
0.00713037
0.00644094
0.00548711
0.00431284
0.00362715
0.00311066
0.00284317
0.00259264
0.00246416
0.00238041
0.0023449
0.00233569
0.00236151
0.00241983
0.00249929
0.00260453
0.00273168
0.00288771
0.00307533
0.003302
0.00357319
0.00389739
0.00427918
0.00473772
0.0053547
0.00596416
0.00620174
0.00573572
0.0029549
0.00050928
0.000107502
4.92137e-05
0.00193224
0.00155368
0.0016312
0.00204485
0.0032537
0.00536017
0.00668222
0.00692245
0.00631428
0.00473143
0.00358269
0.00295352
0.00252475
0.00224954
0.00208648
0.00197956
0.00193321
0.00191672
0.0019165
0.00195089
0.00199247
0.00205076
0.00211853
0.00220299
0.00230363
0.00242777
0.0025805
0.00276883
0.00299558
0.00326447
0.00357828
0.00393896
0.00436849
0.00494163
0.00579275
0.00617729
0.00553059
0.00157961
0.000199127
5.60999e-05
0.00320513
0.00244868
0.00274403
0.0035788
0.0051643
0.00633291
0.00660052
0.00608794
0.00431745
0.00312485
0.00253131
0.00215022
0.00191184
0.00177706
0.00170984
0.00168036
0.00167285
0.00168116
0.00170611
0.00173942
0.00178023
0.00183135
0.00189387
0.00197189
0.00206798
0.00218766
0.00233532
0.00251633
0.00273516
0.00299471
0.00329567
0.00364296
0.00402054
0.00444878
0.00500392
0.0057589
0.00607577
0.00424475
0.000604021
0.000103601
0.00478609
0.00359136
0.00406581
0.00502942
0.00597779
0.00625123
0.00587738
0.0042178
0.00288856
0.00225857
0.0019194
0.00169563
0.00158149
0.00152362
0.00149693
0.00148621
0.00148338
0.00148707
0.00149868
0.00151487
0.00154009
0.00157699
0.00162902
0.00170031
0.00179541
0.00192
0.00207967
0.00228034
0.00252657
0.00281968
0.00315492
0.00352027
0.0039103
0.00432237
0.00474714
0.00527884
0.00568609
0.00559502
0.00153494
0.000232701
0.00647446
0.00483575
0.00526872
0.00581742
0.00601354
0.00573268
0.00434161
0.0028398
0.00211608
0.00176398
0.00155954
0.00144019
0.00138188
0.00134696
0.00132294
0.00130222
0.00128345
0.00126772
0.00125873
0.0012554
0.00126038
0.00128225
0.00132084
0.00138128
0.00146844
0.00158844
0.00174897
0.00195884
0.00222724
0.00256078
0.00295833
0.00340387
0.00386387
0.00430942
0.00471504
0.00514566
0.00557367
0.00573199
0.00336704
0.000581638
0.00790583
0.00596755
0.00612839
0.0061722
0.00574016
0.00462864
0.00301552
0.00209833
0.00167561
0.00146635
0.0013394
0.0012696
0.0012262
0.00118703
0.00114918
0.00111004
0.00107231
0.00103844
0.00101139
0.000996597
0.000991345
0.000998012
0.00102699
0.0010753
0.00115036
0.0012573
0.00140516
0.00160516
0.00187156
0.00221969
0.00266088
0.00319134
0.00377632
0.00434262
0.00484254
0.00517136
0.00556364
0.0057736
0.0051197
0.00157919
0.0089563
0.0067909
0.00664703
0.00610138
0.00508251
0.00348683
0.00223693
0.00167168
0.0014071
0.00127267
0.00118551
0.0011312
0.00108149
0.00102907
0.000975191
0.000920996
0.000870636
0.000826716
0.000791897
0.00077037
0.000761138
0.000760001
0.000780493
0.00081861
0.000880182
0.000970393
0.0010979
0.00127485
0.00151822
0.00185019
0.00229575
0.00287364
0.00357546
0.00433501
0.00501404
0.00544991
0.00570586
0.00587941
0.00570911
0.0028099
0.00970844
0.00732106
0.0068635
0.00584217
0.00423809
0.00261988
0.00178273
0.00140746
0.00122907
0.00113197
0.00106073
0.00100408
0.000942394
0.00087769
0.00081277
0.00075083
0.000695638
0.000649176
0.000613086
0.000589446
0.000578455
0.000575661
0.00058884
0.000619077
0.000668382
0.000742306
0.00084834
0.000998169
0.0012091
0.00150619
0.00192305
0.00249764
0.00325513
0.00416715
0.00509083
0.00573083
0.00602261
0.00614835
0.00606097
0.00399149
0.010111
0.00754916
0.00679759
0.00533763
0.00344951
0.00209531
0.00149767
0.00122923
0.00109916
0.00101854
0.000949982
0.000885008
0.000813271
0.000740965
0.000671288
0.000607867
0.000553292
0.000508637
0.000474494
0.000451599
0.000440625
0.000437313
0.000445756
0.000469629
0.000508948
0.000568819
0.000655632
0.000779837
0.000957675
0.00121439
0.00158782
0.00212973
0.00289688
0.00391581
0.00510634
0.00602718
0.00637991
0.00647812
0.00640538
0.00494154
0.0100963
0.00752624
0.00660236
0.00478843
0.00281465
0.00175816
0.00130487
0.00109904
0.000996616
0.00092107
0.000849636
0.000776687
0.000699049
0.000623899
0.000554262
0.000493183
0.000442025
0.000401044
0.000370071
0.000349033
0.000338762
0.000335401
0.000340883
0.000359773
0.000391357
0.000439919
0.000510866
0.000613118
0.00076099
0.000977804
0.00130122
0.00178914
0.00251977
0.00356889
0.00493855
0.0062884
0.00684747
0.00694637
0.00668948
0.00583004
0.00996944
0.0074053
0.00624927
0.0042365
0.00237878
0.00152838
0.00116586
0.000999568
0.000911308
0.00083573
0.000760238
0.000681945
0.00060221
0.000527654
0.000460836
0.000403846
0.000357086
0.000320205
0.00029257
0.000273646
0.000264292
0.000261095
0.000264758
0.000279852
0.000305589
0.000345426
0.000403967
0.000488752
0.000612114
0.000794819
0.00107234
0.00150416
0.00218206
0.00321927
0.00467712
0.00640456
0.00733791
0.00749404
0.00713289
0.00664979
0.00966764
0.00714223
0.00583672
0.00375507
0.00208165
0.00136433
0.00106093
0.000920646
0.000838843
0.000761642
0.000682869
0.000602019
0.00052283
0.000450844
0.000388044
0.00033559
0.000293225
0.0002602
0.000235626
0.000218719
0.000210282
0.00020733
0.000209891
0.0002221
0.000243392
0.000276527
0.000325449
0.00039653
0.000500226
0.000654411
0.000890792
0.00126634
0.00187954
0.00287849
0.00441135
0.0064287
0.00784184
0.00811346
0.00761705
0.00744985
0.00915171
0.00682558
0.00541882
0.00336743
0.00187008
0.00124373
0.000979879
0.000856652
0.000777402
0.000698621
0.000617916
0.000536648
0.000459516
0.000390957
0.000332393
0.000284243
0.000245828
0.000216159
0.000194215
0.000179125
0.000171488
0.000168792
0.000170697
0.000180708
0.000198594
0.000226584
0.000268119
0.000328703
0.000417317
0.000549331
0.000752494
0.00107888
0.00162566
0.00255825
0.00409239
0.0063269
0.00831195
0.00881428
0.00820745
0.00822555
0.00856287
0.00647946
0.00502143
0.00306617
0.00171715
0.00115355
0.000916511
0.000804381
0.000726
0.000646326
0.000564975
0.00048466
0.000410257
0.000345275
0.000290651
0.000246273
0.000211209
0.000184335
0.000164567
0.000151009
0.000144027
0.000141559
0.000143078
0.000151409
0.000166643
0.00019063
0.0002264
0.000278806
0.00035569
0.000470353
0.000646891
0.00093188
0.00141801
0.00228031
0.00378716
0.00615228
0.00872868
0.00958221
0.00883641
0.00899555
0.00785851
0.00615237
0.00466868
0.00283883
0.00160711
0.00108669
0.000867211
0.00076197
0.000683936
0.000604125
0.000523122
0.000444535
0.000373011
0.000311352
0.00026013
0.00021889
0.000186552
0.000161922
0.000143894
0.000131559
0.000125061
0.000122766
0.000124056
0.000131111
0.000144277
0.000165144
0.000196408
0.000242447
0.000310281
0.000411667
0.000567645
0.000819186
0.00125142
0.00203949
0.00349226
0.00593932
0.00905827
0.0103918
0.00959796
0.00975847
0.00717301
0.0058347
0.00436326
0.0026735
0.00153233
0.00103748
0.000829141
0.000727931
0.000650259
0.000571114
0.000491241
0.00041469
0.000345863
0.000287098
0.000238694
0.000199968
0.000169762
0.000146863
0.000130167
0.000118767
0.000112572
0.000110362
0.000111488
0.000117578
0.000129142
0.000147591
0.000175316
0.000216344
0.000277083
0.000368194
0.0005084
0.000733823
0.00112148
0.00184111
0.00322894
0.00572919
0.00930032
0.0112335
0.010431
0.0105154
0.00636383
0.0055511
0.00411471
0.00255915
0.0014839
0.00100522
0.000801195
0.000701455
0.000624389
0.000546412
0.000468064
0.000393746
0.000327454
0.000271102
0.000224857
0.000187976
0.000159324
0.000137691
0.000121968
0.000111244
0.000105191
0.000102985
0.000104092
0.000109513
0.000119799
0.000136219
0.000161171
0.000198281
0.000253455
0.000336613
0.000464827
0.00067019
0.00102143
0.00167842
0.0029925
0.00552403
0.00945556
0.0121078
0.0113828
0.0112704
0.00570294
0.00531151
0.00391523
0.00248587
0.00146697
0.000984535
0.000781626
0.000681477
0.000604912
0.000528817
0.000452743
0.000380513
0.000316068
0.00026149
0.000216924
0.000181592
0.000154248
0.000133564
0.000118471
0.000108126
0.000102024
9.96911e-05
0.00010094
0.000105906
0.000115391
0.000130551
0.000153369
0.000187138
0.00023753
0.000314505
0.000433667
0.000624119
0.000947144
0.00155042
0.00278794
0.0053115
0.00956998
0.0130009
0.0124379
0.0120151
0.00513711
0.00509301
0.00378814
0.00245051
0.00147521
0.000986584
0.000770784
0.000667734
0.000592046
0.000517871
0.00044354
0.000373742
0.000312012
0.000259502
0.000216345
0.000181737
0.000154649
0.000134096
0.000119048
0.000108672
0.000102386
9.97894e-05
0.000100736
0.000105126
0.000114085
0.000128547
0.000150147
0.000181917
0.000229282
0.000301035
0.00041273
0.000592344
0.000894122
0.00145257
0.00261624
0.00510802
0.0096272
0.0139052
0.0136191
0.0127561
0.00463339
0.00490809
0.00370942
0.00245749
0.00150168
0.000998656
0.000772292
0.000659935
0.00058315
0.000511654
0.000441493
0.000374325
0.000313561
0.000261645
0.000218856
0.000184533
0.000157675
0.00013722
0.000122192
0.000111789
0.000105449
0.000102922
0.000103734
0.000107533
0.000115712
0.000129177
0.000149676
0.000180348
0.000226176
0.000294829
0.000402272
0.000574557
0.000860768
0.00138233
0.00247774
0.00491906
0.00965464
0.0148432
0.0149005
0.0134805
0.00417375
0.00476459
0.00369687
0.00248778
0.00155715
0.00102706
0.000780521
0.000660938
0.000581857
0.000512047
0.000443402
0.000377885
0.000318578
0.000267604
0.000225404
0.000191419
0.000164718
0.000144256
0.000129113
0.000118531
0.000111965
0.000109235
0.000109962
0.000113438
0.000121189
0.00013425
0.000153941
0.000182987
0.000226225
0.000293111
0.000398396
0.000566895
0.000844912
0.00133884
0.00237322
0.00474901
0.00966304
0.0157853
0.0163013
0.0141931
0.00374144
0.00465356
0.00371487
0.00255616
0.00164137
0.00108109
0.00080026
0.00066676
0.000584165
0.000514912
0.000448646
0.000385921
0.000328852
0.000279075
0.000237283
0.000203276
0.000176313
0.000155482
0.000139928
0.000128931
0.000121958
0.000118911
0.000119571
0.00012285
0.000130325
0.000143208
0.000162621
0.000191206
0.000233584
0.000297983
0.000399623
0.000565492
0.000839936
0.00131873
0.00229968
0.00460697
0.00966514
0.0167253
0.0178251
0.0148803
0.00333101
0.00457659
0.00376513
0.00266205
0.00175472
0.00116036
0.000839831
0.00068129
0.000591038
0.000521653
0.000458412
0.000398403
0.000343292
0.000294669
0.000253335
0.000219287
0.000191993
0.000170695
0.000154633
0.000143151
0.000135724
0.000132314
0.000132927
0.0001361
0.000143439
0.000156334
0.000175745
0.000204226
0.000246295
0.000310336
0.00041174
0.000576828
0.000847786
0.00131359
0.00226098
0.00449342
0.00966611
0.0176537
0.0194704
0.0155442
0.00292797
0.00451132
0.00385328
0.00280419
0.00190364
0.0012703
0.000902111
0.000710848
0.00060565
0.000533378
0.000471529
0.000414107
0.000361192
0.000313993
0.000273339
0.000239404
0.000211862
0.00019013
0.000173569
0.000161608
0.000153746
0.000149978
0.000150571
0.000153723
0.000161065
0.000174154
0.000193835
0.000222639
0.000265048
0.000329449
0.000431402
0.000598364
0.000872709
0.0013305
0.00224683
0.00440447
0.00966941
0.0185945
0.0212229
0.0161726
0.00253287
0.00445806
0.00397205
0.00296367
0.00208218
0.0014156
0.000994685
0.000761246
0.000632936
0.000551774
0.000488675
0.000432915
0.000382134
0.00033662
0.000296986
0.000263481
0.000235948
0.000213977
0.000197057
0.000184735
0.000176542
0.000172513
0.000173131
0.000176354
0.000183853
0.000197312
0.00021752
0.000247048
0.000290441
0.000356279
0.000460382
0.000630986
0.000910945
0.00137089
0.00225103
0.0043469
0.00964936
0.0195279
0.0230532
0.0167677
0.00212765
0.00435706
0.00406076
0.00317325
0.00229245
0.0015976
0.00112295
0.00083902
0.000677907
0.000580564
0.000511831
0.000455606
0.000406218
0.000362354
0.000324014
0.000291318
0.000264173
0.000242301
0.000225307
0.000212869
0.000204537
0.000200479
0.000201194
0.000204606
0.000212453
0.000226468
0.000247465
0.000278143
0.000323202
0.000391586
0.000499369
0.000675713
0.00096426
0.00143221
0.00229288
0.00432307
0.00962087
0.0204324
0.0249105
0.0173198
0.00175774
0.00422797
0.00410542
0.00340272
0.00253237
0.00182078
0.0012971
0.000956349
0.000751284
0.000627479
0.000545826
0.00048479
0.000434599
0.000391522
0.000354351
0.000322699
0.000296328
0.000274981
0.000258309
0.000246131
0.000237932
0.000234228
0.000235144
0.00023891
0.000247355
0.000262157
0.000284256
0.000316601
0.000364126
0.000436369
0.000549591
0.000733977
0.00103356
0.00151583
0.00236038
0.00431973
0.00959818
0.0212518
0.0267098
0.017836
0.00144641
0.00395752
0.00414675
0.00362295
0.00277777
0.00207136
0.00151651
0.00112276
0.000866266
0.00070492
0.000600459
0.000527434
0.000471854
0.000426927
0.000389588
0.00035845
0.000332781
0.000312144
0.000296076
0.000284523
0.000276714
0.000273828
0.000275083
0.000279419
0.000288806
0.000304723
0.000328363
0.000363102
0.000414132
0.000491883
0.00061257
0.000807795
0.00112096
0.00162432
0.00246358
0.00437019
0.00959021
0.0219868
0.0283835
0.0183153
0.00116811
0.00340075
0.00421662
0.00383685
0.00303888
0.0023467
0.0017816
0.00134851
0.0010399
0.000831122
0.000691652
0.000596006
0.000527125
0.000474988
0.000434089
0.000401458
0.000375395
0.000354972
0.000339315
0.00032849
0.000321119
0.000319451
0.000321185
0.000326338
0.00033708
0.000354636
0.00038052
0.000418799
0.000474804
0.000560342
0.000691023
0.000900916
0.00123098
0.00176405
0.00261014
0.00448356
0.00962534
0.0226385
0.0298442
0.0187784
0.000915568
0.00255802
0.00414627
0.00392667
0.00328827
0.00262823
0.00208097
0.00163535
0.00128917
0.0010326
0.000848394
0.000717297
0.000623039
0.000553856
0.000501992
0.000462556
0.000432377
0.00040968
0.000392732
0.000381642
0.000374021
0.000373303
0.000375545
0.00038168
0.000394164
0.000414216
0.000443508
0.000487231
0.000550461
0.000647311
0.000791688
0.00102252
0.00137539
0.00195195
0.00282648
0.00470647
0.00978949
0.0232801
0.0310001
0.0192491
0.000787826
0.00178842
0.00385022
0.00386094
0.00353495
0.00292483
0.00241452
0.00198287
0.00162217
0.00133038
0.00110167
0.000926721
0.000794698
0.000695667
0.000621374
0.000565743
0.000524073
0.000493537
0.000471134
0.000456679
0.000446832
0.000445209
0.000447679
0.000454717
0.000469203
0.000493187
0.00052786
0.000580399
0.000654793
0.000769429
0.000934478
0.00119881
0.00158795
0.00223557
0.0031809
0.00514188
0.0102164
0.0240487
0.0317206
0.0195272
0.0008213
0.00138673
0.00315708
0.00365296
0.00354465
0.00321831
0.00279329
0.00241202
0.00206851
0.00176387
0.00150251
0.00128477
0.00110808
0.000967104
0.000856622
0.000770705
0.000704537
0.000654448
0.000617424
0.000592043
0.0005752
0.000567544
0.000569392
0.000576781
0.000593052
0.000623668
0.000668062
0.000736914
0.000831738
0.000979168
0.0011821
0.00150974
0.00196932
0.00275082
0.00385924
0.00605971
0.0112655
0.025205
0.0320132
0.0196266
0.00117969
0.00123796
0.00237748
0.00316833
0.00350006
0.00343531
0.00322997
0.00293664
0.00264188
0.00235507
0.00208334
0.001836
0.00161784
0.0014319
0.00127431
0.00114926
0.00105035
0.000973436
0.000914434
0.000871659
0.000843106
0.000827588
0.000829563
0.000840066
0.000863946
0.000911289
0.000980474
0.00108813
0.00123229
0.00145459
0.00174624
0.00221669
0.00283964
0.00390997
0.00537873
0.00810656
0.0135898
0.0270899
0.0320099
0.0194685
0.00192514
0.00145189
0.00221916
0.00312178
0.00367782
0.00393635
0.00394897
0.00383847
0.00360993
0.00334144
0.00306332
0.00279005
0.00253556
0.00230716
0.002109
0.00193919
0.00180013
0.00169048
0.00160807
0.0015537
0.00151939
0.00152086
0.00153785
0.00157964
0.00165773
0.00177352
0.00192862
0.00215451
0.00245167
0.00287972
0.00342879
0.00426847
0.00532123
0.00706666
0.00922765
0.0132476
0.0187676
0.0303507
0.0318384
0.0188569
0.00318755
0.00221795
0.00309435
0.00418975
0.00504134
0.00565365
0.00593103
0.00596569
0.00584902
0.00559768
0.00530146
0.00499206
0.00469828
0.00443144
0.0042064
0.0040239
0.0038908
0.00379983
0.00377044
0.00378788
0.0038443
0.00396352
0.00415023
0.00439187
0.00472314
0.00512715
0.00566259
0.00629558
0.00710491
0.00814655
0.0095366
0.0113432
0.0135908
0.016717
0.0203393
0.0260696
0.0310748
0.0362091
0.0326868
0.0177075
0.00523045
0.00509734
0.00854105
0.0113901
0.0129942
0.0138524
0.0141369
0.0140719
0.0138517
0.0134625
0.0130507
0.0126594
0.0123347
0.0120945
0.0119422
0.0119442
0.0120137
0.0121846
0.0125052
0.0129406
0.013522
0.0142078
0.0150705
0.016049
0.0172801
0.0186187
0.0203467
0.0221324
0.0245537
0.0268445
0.0300555
0.0329164
0.0371068
0.0404965
0.0455089
0.0484059
0.0474436
0.0421273
0.0330725
0.0154274
0.00354921
0.00543988
0.00703972
0.008668
0.010171
0.0115284
0.0126975
0.0136338
0.0143003
0.014716
0.0149769
0.0150517
0.0150211
0.014927
0.0147682
0.0145531
0.0143224
0.0140953
0.0138614
0.0136436
0.0134412
0.0132608
0.0131111
0.0129832
0.0129016
0.0128381
0.0128411
0.0128669
0.012944
0.0130368
0.0132424
0.0134274
0.013868
0.0142106
0.0149859
0.015491
0.0163431
0.0164222
0.0158672
0.013252
)
;

boundaryField
{
    movingWall
    {
        type            epsilonWallFunction;
        value           nonuniform List<scalar> 
40
(
0.00354921
0.00543988
0.00703972
0.008668
0.010171
0.0115284
0.0126975
0.0136338
0.0143003
0.014716
0.0149769
0.0150517
0.0150211
0.014927
0.0147682
0.0145531
0.0143224
0.0140953
0.0138614
0.0136436
0.0134412
0.0132608
0.0131111
0.0129832
0.0129016
0.0128381
0.0128411
0.0128669
0.012944
0.0130368
0.0132424
0.0134274
0.013868
0.0142106
0.0149859
0.015491
0.0163431
0.0164222
0.0158672
0.013252
)
;
    }
    fixedWalls
    {
        type            epsilonWallFunction;
        value           nonuniform List<scalar> 
120
(
3.13522e-05
0.000150963
0.000454629
0.0010343
0.00193224
0.00320513
0.00478609
0.00647446
0.00790583
0.0089563
0.00970844
0.010111
0.0100963
0.00996944
0.00966764
0.00915171
0.00856287
0.00785851
0.00717301
0.00636383
0.00570294
0.00513711
0.00463339
0.00417375
0.00374144
0.00333101
0.00292797
0.00253287
0.00212765
0.00175774
0.00144641
0.00116811
0.000915568
0.000787826
0.0008213
0.00117969
0.00192514
0.00318755
0.00523045
0.00354921
5.22514e-05
8.71917e-05
7.14438e-05
4.92137e-05
5.60999e-05
0.000103601
0.000232701
0.000581638
0.00157919
0.0028099
0.00399149
0.00494154
0.00583004
0.00664979
0.00744985
0.00822555
0.00899555
0.00975847
0.0105154
0.0112704
0.0120151
0.0127561
0.0134805
0.0141931
0.0148803
0.0155442
0.0161726
0.0167677
0.0173198
0.017836
0.0183153
0.0187784
0.0192491
0.0195272
0.0196266
0.0194685
0.0188569
0.0177075
0.0154274
0.013252
3.13522e-05
0.000103143
0.000196968
0.000194861
0.000177293
0.000181624
0.000235691
0.000402327
0.00060449
0.000890877
0.00134612
0.00165834
0.00182336
0.00203822
0.00236531
0.00277573
0.003149
0.00358088
0.0039919
0.00446839
0.0049498
0.00550632
0.00610321
0.00680495
0.0076148
0.0083206
0.00904855
0.00966107
0.0101944
0.0104795
0.0105923
0.0103734
0.00955122
0.008151
0.0061624
0.00369905
0.0018196
0.000773215
0.000249258
5.22514e-05
)
;
    }
    frontAndBack
    {
        type            empty;
    }
}


// ************************************************************************* //
