/*--------------------------------*- C++ -*----------------------------------*\
  =========                 |
  \\      /  F ield         | OpenFOAM: The Open Source CFD Toolbox
   \\    /   O peration     | Website:  https://openfoam.org
    \\  /    A nd           | Version:  12
     \\/     M anipulation  |
\*---------------------------------------------------------------------------*/
FoamFile
{
    format      ascii;
    class       volScalarField;
    location    "9.5";
    object      k;
}
// * * * * * * * * * * * * * * * * * * * * * * * * * * * * * * * * * * * * * //

dimensions      [0 2 -2 0 0 0 0];

internalField   nonuniform List<scalar> 
1600
(
2.45009e-06
8.05987e-06
1.5391e-05
1.52261e-05
1.38532e-05
1.41916e-05
1.84162e-05
3.14363e-05
4.72319e-05
6.96106e-05
0.000105178
0.000129572
0.000142467
0.000159258
0.000184817
0.000216887
0.000246053
0.000279798
0.000311913
0.000349143
0.000386757
0.000430241
0.000476879
0.000531708
0.00059498
0.000650125
0.000706999
0.000754854
0.000796524
0.000818799
0.000827607
0.000810501
0.000746265
0.000636867
0.000481494
0.000289029
0.000142181
6.04195e-05
1.94777e-05
4.08313e-06
1.17972e-05
5.14953e-05
9.71151e-05
0.000102814
9.95961e-05
0.000106748
0.00015203
0.000259939
0.000362858
0.000503873
0.000710079
0.000807211
0.000829051
0.00083232
0.000833545
0.000874059
0.000893411
0.000939375
0.000971816
0.00102388
0.00107088
0.00112994
0.00118614
0.00124499
0.00129849
0.0013677
0.00143311
0.00150422
0.00156317
0.00159771
0.00160979
0.00157328
0.00146416
0.00126785
0.00100311
0.000624434
0.000285189
0.000119834
4.23503e-05
6.81335e-06
3.55269e-05
0.000135145
0.000208701
0.000221538
0.000241312
0.000318601
0.000530147
0.000854744
0.0011025
0.00118549
0.00111505
0.00100414
0.00095156
0.00093357
0.000929295
0.000935367
0.0009458
0.000964919
0.000985033
0.00101365
0.00103898
0.00106793
0.00109743
0.00113166
0.0011679
0.00120774
0.00124826
0.00129059
0.00133145
0.00137022
0.00139169
0.0014
0.001383
0.00127204
0.00108524
0.000705602
0.000266739
9.88715e-05
3.81057e-05
5.58275e-06
8.08228e-05
0.000276921
0.00037785
0.000419767
0.000524724
0.000771072
0.00112301
0.00129769
0.00131723
0.00116504
0.00105154
0.000968446
0.000932809
0.000918673
0.000913877
0.000913804
0.000918862
0.000928516
0.000939172
0.00095348
0.000969681
0.000990609
0.0010117
0.00103577
0.00106046
0.00108698
0.00111434
0.00114246
0.00116939
0.0011944
0.00121206
0.0012204
0.00122232
0.00120113
0.00114042
0.000963832
0.000427117
0.000103289
2.83962e-05
3.84551e-06
0.000150986
0.000481387
0.000618644
0.000715712
0.00092266
0.00122733
0.00137273
0.00137695
0.00123652
0.00104532
0.000952033
0.000907084
0.000885777
0.000875584
0.00087179
0.00087176
0.000883625
0.000895306
0.00091172
0.000928477
0.000946783
0.000965129
0.000984013
0.00100396
0.00102539
0.001049
0.00107486
0.00110247
0.00112974
0.00115186
0.00116713
0.00117457
0.00117705
0.00116975
0.00114133
0.00107124
0.000811494
0.000225301
3.86232e-05
4.38336e-06
0.000250445
0.000732194
0.00090718
0.00104429
0.00126621
0.00138939
0.00139732
0.00127999
0.00104358
0.000929191
0.000875753
0.000850668
0.000840041
0.000837071
0.000840995
0.000853262
0.000868483
0.000883785
0.000900101
0.000916053
0.000932636
0.000949223
0.000967066
0.000986416
0.00100843
0.00103359
0.0010624
0.00109474
0.00112971
0.0011649
0.00118398
0.00118889
0.00118641
0.00117267
0.00114369
0.0010925
0.000957161
0.000466544
8.3013e-05
8.09446e-06
0.000373971
0.00099001
0.00119455
0.00131125
0.00139759
0.001408
0.00131074
0.00106341
0.000915992
0.00085142
0.000822868
0.000811686
0.000808969
0.000813967
0.00082557
0.000838256
0.000850403
0.000861711
0.000872761
0.000882787
0.000893638
0.000906342
0.00092228
0.000942246
0.000967033
0.000997594
0.00103439
0.00107743
0.00112561
0.00117614
0.00122826
0.00126535
0.00127384
0.00126441
0.0012207
0.00113542
0.00100773
0.000727482
0.000167735
1.81809e-05
0.000505888
0.00124418
0.00142028
0.00145518
0.00144429
0.00134384
0.00111752
0.00092118
0.00083663
0.000801216
0.00078769
0.000784227
0.000786691
0.000795576
0.000803249
0.000809306
0.000813093
0.000815378
0.000817305
0.00082042
0.000825942
0.000835094
0.000848919
0.000868421
0.000894652
0.000928739
0.000971687
0.0010243
0.00108659
0.00115673
0.00122955
0.0012968
0.00133998
0.00134783
0.00133553
0.00126143
0.00109799
0.00082993
0.000286485
4.54428e-05
0.000617723
0.00144814
0.00158387
0.00154533
0.00140848
0.00119995
0.000954559
0.00083637
0.000786866
0.000767687
0.00076168
0.000760864
0.000764566
0.00076654
0.000766726
0.000762773
0.00075714
0.000751036
0.000746754
0.000745033
0.000745311
0.00075191
0.000763675
0.000782242
0.000808399
0.000843409
0.000888631
0.000945673
0.00101605
0.00110042
0.00119668
0.00129685
0.00137905
0.00141681
0.00142007
0.00138233
0.0012498
0.000980405
0.000520312
0.000123383
0.000699799
0.00158525
0.00168705
0.00154343
0.00131947
0.00104211
0.000860751
0.000784029
0.000753079
0.000741358
0.000737275
0.000735819
0.000734251
0.000728034
0.000718509
0.000705937
0.000693075
0.000681209
0.000671934
0.000667226
0.000665693
0.000669361
0.000680051
0.000697447
0.000722838
0.000757233
0.000802136
0.000859446
0.000931579
0.00102114
0.00112978
0.00125541
0.00138691
0.00147591
0.00150208
0.00148573
0.00137235
0.00110081
0.000633275
0.000219541
0.000758564
0.00167616
0.00174953
0.00151464
0.00119876
0.000929929
0.000801932
0.000748122
0.000725972
0.000716531
0.000711928
0.000706237
0.000696871
0.000682336
0.000665019
0.000646348
0.000628712
0.000613286
0.000601321
0.00059476
0.000592306
0.000593841
0.000603666
0.000619915
0.000644269
0.000677539
0.000721213
0.000777185
0.000848117
0.000937493
0.00104917
0.00118541
0.001342
0.00149913
0.00157972
0.00159171
0.00152028
0.00126257
0.000778549
0.00031186
0.000790016
0.0017096
0.00175079
0.001452
0.00108706
0.000859491
0.000760996
0.000719307
0.000701129
0.000692294
0.000684352
0.000672476
0.000655628
0.000634483
0.00061179
0.00058927
0.000568803
0.000551366
0.000537881
0.000530034
0.000526921
0.000526909
0.000535614
0.000550705
0.000573815
0.000605758
0.00064794
0.000702164
0.000771057
0.000858442
0.000969579
0.0011104
0.00128398
0.00148175
0.00163017
0.00167404
0.00163621
0.00139426
0.000897357
0.000386089
0.00078887
0.00170559
0.00173382
0.00137585
0.000996641
0.000809624
0.000729063
0.000694111
0.000677923
0.000667611
0.000654913
0.000636919
0.000614106
0.000588341
0.000562263
0.000537489
0.00051543
0.000496852
0.00048242
0.000473322
0.000469333
0.000468716
0.000475781
0.000489675
0.000511383
0.000541867
0.000582452
0.000634828
0.000701398
0.000785769
0.000893405
0.00103187
0.00120899
0.0014255
0.00165153
0.00175857
0.0017601
0.00154729
0.00101788
0.000455506
0.000778954
0.00168505
0.00169322
0.00129473
0.00093404
0.000771904
0.000702315
0.000671181
0.00065586
0.000642697
0.000625164
0.000602063
0.000574962
0.000546206
0.000518121
0.000492082
0.00046913
0.000449851
0.000434731
0.000424558
0.000419812
0.000418694
0.000424144
0.000436734
0.000456947
0.000485854
0.000524783
0.000575388
0.000639925
0.000721753
0.000826223
0.00096172
0.00113958
0.00136922
0.00164201
0.00182809
0.00186204
0.0016853
0.00113792
0.000519553
0.000755373
0.00164022
0.00163229
0.0012229
0.000887442
0.000741473
0.00067896
0.000650548
0.000634873
0.000618468
0.000596723
0.000569749
0.000539759
0.000509173
0.000479963
0.000453258
0.000429835
0.000410151
0.000394579
0.000383578
0.000378195
0.000376644
0.000380678
0.000391888
0.000410522
0.000437697
0.000474794
0.000523494
0.000585961
0.000665258
0.000766248
0.00089706
0.0010704
0.00130137
0.0015946
0.00187143
0.00196367
0.0018284
0.00125862
0.00058206
0.000715063
0.00158313
0.00156425
0.00116286
0.000851069
0.000716285
0.000658613
0.000632105
0.000615308
0.000595891
0.0005708
0.000541073
0.000509238
0.000477603
0.000447831
0.000420852
0.000397262
0.000377425
0.000361635
0.000350158
0.000344239
0.000342331
0.000345218
0.000355045
0.000372044
0.000397352
0.000432432
0.000479072
0.000539481
0.000616584
0.000714852
0.000841979
0.00101127
0.00124177
0.00154675
0.00188911
0.0020497
0.00196435
0.00138265
0.000642664
0.000669055
0.00151787
0.00149417
0.00111372
0.000822337
0.000695295
0.000641049
0.000615767
0.000597598
0.000575691
0.000548124
0.000516553
0.000483617
0.000451461
0.000421507
0.000394537
0.000371026
0.000351266
0.00033548
0.000323871
0.000317517
0.000315321
0.000317337
0.00032585
0.000341206
0.000364552
0.000397438
0.000441795
0.000499966
0.000574842
0.000670499
0.000793833
0.000957752
0.00118436
0.00149881
0.00189149
0.00213084
0.00209762
0.00150691
0.000702822
0.000614022
0.00145442
0.00142709
0.00107437
0.000800114
0.000678222
0.000626153
0.000601499
0.000582046
0.000558279
0.000529024
0.00049632
0.000462817
0.000430509
0.000400646
0.000373903
0.00035067
0.000331182
0.000315601
0.000304066
0.000297394
0.000294958
0.000296344
0.000303669
0.000317439
0.000338813
0.000369411
0.000411318
0.000467109
0.000539815
0.000633337
0.00075379
0.000912928
0.00113326
0.00144746
0.00186777
0.00220125
0.00222588
0.00163951
0.000762428
0.000560463
0.00138817
0.00136459
0.00104401
0.000783814
0.000664337
0.000613624
0.000589254
0.000568813
0.000543813
0.000513553
0.000480284
0.000446614
0.000414421
0.000384842
0.000358483
0.000335672
0.000316592
0.00030135
0.000290021
0.000283125
0.00028045
0.000281386
0.000287681
0.000299981
0.000319466
0.000347786
0.000387149
0.000440407
0.000510847
0.00060239
0.000720504
0.000875615
0.00108973
0.00140069
0.0018378
0.00226226
0.00235046
0.00177316
0.000821562
0.000497239
0.00133212
0.00130886
0.00102103
0.000772882
0.000654363
0.000603544
0.000578929
0.000557832
0.000532221
0.000501574
0.000468196
0.00043466
0.00040279
0.000373644
0.000347776
0.000325474
0.000306876
0.000292042
0.000280994
0.000273963
0.000271009
0.000271587
0.000277004
0.000287995
0.000305766
0.000331942
0.00036878
0.000419451
0.000487572
0.000577318
0.000693689
0.000845601
0.0010535
0.00135833
0.00180453
0.00230563
0.00247267
0.00191527
0.000880547
0.000445602
0.00127136
0.00126104
0.00100493
0.000768475
0.000646708
0.000595418
0.000570431
0.000549038
0.000523353
0.000492833
0.000459782
0.000426686
0.000395277
0.00036662
0.00034129
0.000319539
0.000301458
0.00028705
0.000276297
0.000269253
0.00026603
0.000266595
0.0002714
0.000281309
0.000297434
0.00032134
0.000355697
0.000403831
0.000469585
0.000557627
0.000672734
0.00082234
0.00102471
0.0013224
0.00177406
0.00233723
0.00259253
0.00205998
0.000938728
0.000401391
0.00120871
0.00121569
0.00099786
0.000770315
0.000645183
0.000589744
0.000563487
0.00054204
0.000516831
0.000487009
0.000454575
0.000422013
0.000391316
0.000363503
0.000338931
0.000317808
0.000300195
0.000286079
0.000275438
0.000268308
0.000264832
0.000265277
0.000269515
0.000278765
0.000293757
0.000316116
0.000348221
0.000393451
0.000456626
0.000543063
0.000657316
0.000805426
0.00100281
0.00129195
0.00174608
0.00235583
0.00270997
0.00221256
0.000996621
0.000362034
0.00114696
0.0011753
0.000998617
0.000776628
0.000647187
0.000586728
0.000558493
0.000536901
0.000512463
0.000483624
0.000452476
0.000421331
0.000391522
0.000364108
0.000339847
0.000318995
0.00030162
0.000287706
0.000277226
0.0002702
0.000266753
0.000267049
0.000270518
0.00027874
0.000292953
0.000314392
0.000345187
0.000388465
0.000449501
0.000534062
0.000647806
0.000795521
0.00098813
0.00126744
0.00171969
0.00236788
0.00282532
0.00236917
0.00105322
0.000326119
0.00108742
0.0011391
0.00100204
0.000790415
0.000653305
0.000587475
0.000554833
0.00053302
0.000509695
0.000482624
0.000452951
0.000422553
0.000393423
0.00036668
0.000342966
0.000322607
0.000305673
0.000292122
0.000281908
0.00027503
0.000271629
0.000271924
0.000274998
0.000282513
0.000295761
0.000315742
0.000344865
0.000386929
0.000446765
0.000530035
0.000643504
0.00079124
0.000981021
0.00124883
0.00169445
0.00237353
0.00293724
0.00253218
0.00110889
0.00029234
0.0010293
0.0011078
0.00100998
0.000809047
0.000666024
0.000590969
0.000554913
0.000530886
0.000508452
0.000483101
0.000454741
0.000425755
0.000397849
0.000372165
0.000349301
0.00032955
0.00031303
0.000299761
0.000289715
0.000282891
0.000279477
0.000279809
0.000282696
0.000289791
0.000302515
0.000321701
0.000349508
0.000389387
0.000446778
0.000529181
0.000642514
0.000790418
0.000978723
0.001237
0.00167177
0.00237549
0.00304638
0.00269968
0.00116258
0.000260272
0.000973295
0.00108056
0.00101615
0.000838621
0.000686523
0.000599138
0.000556829
0.000531205
0.000508838
0.000484589
0.000458404
0.000431268
0.000404783
0.000380173
0.000358138
0.00033903
0.000322998
0.000310083
0.00030028
0.000293591
0.000290277
0.000290697
0.000293555
0.000300462
0.000312878
0.000331545
0.000358561
0.000397377
0.000453471
0.000534384
0.000647597
0.000796338
0.000981966
0.00123157
0.00165132
0.00237526
0.00314976
0.00287201
0.00121445
0.00022878
0.000915917
0.00105681
0.00101776
0.000873833
0.000716479
0.000615666
0.000562558
0.000533191
0.000510314
0.000487547
0.000463311
0.000438163
0.000413377
0.000390107
0.000369116
0.000350822
0.000335425
0.000323
0.000313576
0.000307145
0.000304102
0.000304666
0.000307628
0.000314568
0.000326872
0.00034526
0.00037177
0.000409803
0.000464884
0.000544995
0.00065812
0.000807565
0.000991966
0.00123017
0.00163267
0.00237025
0.00324928
0.00304567
0.00126354
0.000197909
0.000858411
0.00103247
0.00101581
0.000912235
0.000753765
0.00064096
0.000574851
0.000538532
0.000513713
0.000491693
0.000469216
0.00044611
0.000423231
0.000401573
0.000381892
0.000364655
0.000350113
0.000338381
0.00032954
0.000323528
0.000321
0.000321776
0.000324971
0.000332163
0.000344536
0.000362872
0.000389174
0.000426834
0.000481343
0.000560841
0.000673712
0.000823425
0.00100623
0.00123378
0.00161568
0.00235696
0.00334406
0.00321936
0.00131003
0.000166246
0.000793683
0.00101038
0.00100982
0.000947007
0.00080194
0.000677338
0.000597073
0.000549948
0.000520608
0.000497677
0.000476222
0.00045492
0.000434003
0.000414167
0.00039607
0.000380176
0.00036677
0.00035599
0.000347995
0.000342594
0.000340895
0.00034196
0.00034552
0.000353183
0.000365803
0.000384298
0.000410669
0.000448329
0.000502672
0.000581814
0.00069414
0.000843345
0.00102403
0.0012411
0.00160096
0.00233542
0.00343087
0.00338667
0.00135317
0.000137342
0.00073314
0.000985123
0.00100206
0.000966033
0.00085566
0.000726264
0.000632053
0.000572043
0.000534421
0.000507835
0.000485692
0.000465268
0.000445907
0.000427815
0.000411412
0.000397069
0.000385052
0.000375484
0.000368602
0.00036404
0.000363471
0.000364907
0.000368982
0.000377352
0.000390384
0.000409246
0.000435946
0.000473961
0.000528479
0.000607392
0.000718621
0.000866096
0.00104347
0.00124976
0.00158727
0.0023059
0.00350416
0.00354233
0.00139349
0.000113015
0.000666858
0.000967362
0.000994505
0.000974908
0.000904739
0.000784446
0.000681797
0.000608348
0.000559409
0.000525776
0.000500265
0.000478903
0.000459997
0.000443057
0.000428096
0.000415264
0.000404714
0.000396539
0.000390861
0.000387623
0.000387952
0.000390014
0.000394947
0.000404118
0.000417715
0.000437153
0.000464427
0.000503098
0.000557982
0.000636568
0.000745821
0.000889908
0.00106235
0.00125766
0.00157346
0.00227298
0.00356141
0.00367715
0.00143094
9.12699e-05
0.000582392
0.000959346
0.000993411
0.000981265
0.000939009
0.000845982
0.000746275
0.000663966
0.000602886
0.000558891
0.000526298
0.000500834
0.000479998
0.000462545
0.000447919
0.000435918
0.000426388
0.000419457
0.000414716
0.000413111
0.000413986
0.000416824
0.000422873
0.000432804
0.000447101
0.00046731
0.000495345
0.000534847
0.000590011
0.000667814
0.000773828
0.000912587
0.00107839
0.00126367
0.00156291
0.00224322
0.00360125
0.00377982
0.00146711
7.15376e-05
0.000481637
0.000938794
0.000994455
0.000988873
0.000965042
0.000905215
0.000819356
0.000738056
0.000669472
0.000615062
0.000572735
0.000539648
0.000513461
0.000492588
0.000475965
0.000463045
0.000453177
0.000446551
0.000442016
0.000441413
0.000442636
0.000446022
0.000452897
0.000463497
0.000478474
0.000499505
0.000528285
0.0005685
0.000623436
0.000699572
0.000800867
0.000932522
0.00109075
0.00126889
0.0015587
0.00222976
0.00362722
0.00383022
0.00150389
6.1557e-05
0.000397617
0.0008873
0.000989208
0.000993327
0.000985945
0.000959905
0.000902571
0.000831678
0.000763747
0.000703325
0.000651902
0.000609252
0.000574428
0.000546442
0.000524241
0.000507187
0.000494291
0.000485543
0.000479651
0.000477771
0.000478709
0.000481777
0.000488273
0.00049901
0.000514223
0.000535705
0.000564775
0.000605126
0.000658933
0.000732367
0.000827978
0.000952088
0.00110451
0.00128322
0.00157165
0.00222909
0.00365293
0.00384914
0.00152562
6.41734e-05
0.000368677
0.000786144
0.000963329
0.000999225
0.00100958
0.00100559
0.00098657
0.000943775
0.000886554
0.000828201
0.000772878
0.000722871
0.000679179
0.000642122
0.00061139
0.000586631
0.000567161
0.000552528
0.000542242
0.000535535
0.00053357
0.000534861
0.000539069
0.000548075
0.000562412
0.000583526
0.000612208
0.000652119
0.00070444
0.000775355
0.000866963
0.000987054
0.00114184
0.00133603
0.00165089
0.00231324
0.00369745
0.00383467
0.00153338
9.2178e-05
0.000395408
0.000695301
0.000906846
0.00101104
0.00105878
0.0010823
0.00108392
0.00107304
0.0010443
0.000997767
0.000946214
0.000894241
0.000844564
0.000799207
0.000758864
0.000723989
0.000694495
0.000670474
0.000651333
0.000637673
0.000628139
0.000625189
0.000627099
0.000633081
0.000645628
0.000666625
0.000695964
0.000737369
0.000791746
0.000865656
0.000962647
0.00109184
0.0012691
0.00150239
0.00187944
0.00253676
0.0037626
0.00372652
0.00152101
0.000150427
0.000497818
0.000714896
0.0009307
0.00107522
0.00117571
0.00123989
0.0012706
0.00127798
0.00126905
0.0012441
0.00120009
0.00114856
0.00109403
0.00104005
0.000989128
0.000942913
0.000902504
0.000868291
0.000841126
0.000822399
0.000809403
0.000805501
0.000808121
0.000816251
0.000833285
0.000861358
0.000900732
0.000956082
0.00102848
0.00112645
0.00125499
0.00142552
0.00165941
0.00196301
0.00242233
0.00304483
0.00388704
0.00362159
0.00147319
0.000249065
0.000699132
0.000896549
0.00113612
0.00132798
0.00147848
0.00157902
0.00163072
0.00163709
0.00162765
0.00160331
0.00156051
0.00151114
0.00145828
0.00140846
0.00136132
0.00132129
0.00128854
0.00126466
0.00124686
0.00124074
0.00124402
0.00125467
0.00127732
0.00131363
0.0013624
0.00142921
0.00150986
0.00161598
0.0017449
0.00191808
0.00212173
0.0023875
0.00270196
0.00309731
0.00359159
0.00402105
0.00415423
0.00348654
0.00138327
0.000408674
0.00114992
0.00157868
0.00197603
0.0022206
0.00237326
0.00245707
0.00248699
0.00247753
0.00245452
0.0024242
0.00238785
0.00235421
0.00231993
0.00229937
0.00227859
0.00227793
0.00228391
0.00229934
0.00233026
0.00237349
0.00243129
0.00250376
0.00259144
0.00269838
0.00282017
0.00297006
0.00312908
0.0033353
0.00352831
0.00379802
0.00402001
0.00436373
0.00458502
0.0049958
0.00508896
0.00495199
0.00434716
0.00304825
0.00120511
0.000277313
0.000425034
0.000550031
0.000677249
0.000794681
0.00090074
0.000992087
0.00106524
0.00111731
0.00114979
0.00117018
0.00117602
0.00117363
0.00116628
0.00115387
0.00113707
0.00111904
0.00110129
0.00108302
0.001066
0.00105019
0.00103608
0.00102439
0.00101439
0.00100801
0.00100304
0.00100328
0.00100528
0.00101129
0.00101866
0.00103444
0.0010492
0.00108335
0.00111031
0.00117076
0.00121023
0.00127689
0.001283
0.00123967
0.00103538
)
;

boundaryField
{
    movingWall
    {
        type            kqRWallFunction;
        value           nonuniform List<scalar> 
40
(
0.000277313
0.000425034
0.000550031
0.000677249
0.000794681
0.00090074
0.000992087
0.00106524
0.00111731
0.00114979
0.00117018
0.00117602
0.00117363
0.00116628
0.00115387
0.00113707
0.00111904
0.00110129
0.00108302
0.001066
0.00105019
0.00103608
0.00102439
0.00101439
0.00100801
0.00100304
0.00100328
0.00100528
0.00101129
0.00101866
0.00103444
0.0010492
0.00108335
0.00111031
0.00117076
0.00121023
0.00127689
0.001283
0.00123967
0.00103538
)
;
    }
    fixedWalls
    {
        type            kqRWallFunction;
        value           nonuniform List<scalar> 
120
(
2.45009e-06
1.17972e-05
3.55269e-05
8.08228e-05
0.000150986
0.000250445
0.000373971
0.000505888
0.000617723
0.000699799
0.000758564
0.000790016
0.00078887
0.000778954
0.000755373
0.000715063
0.000669055
0.000614022
0.000560463
0.000497239
0.000445602
0.000401391
0.000362034
0.000326119
0.00029234
0.000260272
0.00022878
0.000197909
0.000166246
0.000137342
0.000113015
9.12699e-05
7.15376e-05
6.1557e-05
6.41734e-05
9.2178e-05
0.000150427
0.000249065
0.000408674
0.000277313
4.08313e-06
6.81335e-06
5.58275e-06
3.84551e-06
4.38336e-06
8.09446e-06
1.81809e-05
4.54428e-05
0.000123383
0.000219541
0.00031186
0.000386089
0.000455506
0.000519553
0.00058206
0.000642664
0.000702822
0.000762428
0.000821562
0.000880547
0.000938728
0.000996621
0.00105322
0.00110889
0.00116258
0.00121445
0.00126354
0.00131003
0.00135317
0.00139349
0.00143094
0.00146711
0.00150389
0.00152562
0.00153338
0.00152101
0.00147319
0.00138327
0.00120511
0.00103538
2.45009e-06
8.05987e-06
1.5391e-05
1.52261e-05
1.38532e-05
1.41916e-05
1.84162e-05
3.14363e-05
4.72319e-05
6.96106e-05
0.000105178
0.000129572
0.000142467
0.000159258
0.000184817
0.000216887
0.000246053
0.000279798
0.000311913
0.000349143
0.000386757
0.000430241
0.000476879
0.000531708
0.00059498
0.000650125
0.000706999
0.000754854
0.000796524
0.000818799
0.000827607
0.000810501
0.000746265
0.000636867
0.000481494
0.000289029
0.000142181
6.04195e-05
1.94777e-05
4.08313e-06
)
;
    }
    frontAndBack
    {
        type            empty;
    }
}


// ************************************************************************* //
