/*--------------------------------*- C++ -*----------------------------------*\
  =========                 |
  \\      /  F ield         | OpenFOAM: The Open Source CFD Toolbox
   \\    /   O peration     | Website:  https://openfoam.org
    \\  /    A nd           | Version:  12
     \\/     M anipulation  |
\*---------------------------------------------------------------------------*/
FoamFile
{
    format      ascii;
    class       volScalarField;
    location    "9.5";
    object      nut;
}
// * * * * * * * * * * * * * * * * * * * * * * * * * * * * * * * * * * * * * //

dimensions      [0 2 -1 0 0 0 0];

internalField   nonuniform List<scalar> 
1600
(
1.72321e-08
5.66837e-08
1.08238e-07
1.07077e-07
9.74209e-08
9.98002e-08
1.29509e-07
2.21068e-07
3.32143e-07
4.89526e-07
7.39628e-07
9.11154e-07
1.00184e-06
1.11994e-06
1.29969e-06
1.52522e-06
1.73032e-06
1.96762e-06
2.19346e-06
2.45526e-06
2.71977e-06
3.02555e-06
3.35351e-06
3.73908e-06
4.18397e-06
4.57174e-06
4.97166e-06
5.30815e-06
5.60115e-06
5.75777e-06
5.8197e-06
5.69939e-06
5.24771e-06
4.47847e-06
3.3859e-06
2.03252e-06
9.99881e-07
4.24909e-07
1.36983e-07
2.87165e-08
8.29714e-08
1.27184e-06
3.76118e-06
4.44653e-06
4.34294e-06
4.16549e-06
4.77832e-06
6.47471e-06
7.0618e-06
8.17645e-06
9.48761e-06
1.03741e-05
1.08358e-05
1.17012e-05
1.25241e-05
1.41862e-05
1.52445e-05
1.69992e-05
1.82224e-05
1.97837e-05
2.10346e-05
2.24268e-05
2.36385e-05
2.46594e-05
2.52066e-05
2.60499e-05
2.65691e-05
2.70616e-05
2.7202e-05
2.68619e-05
2.65937e-05
2.52924e-05
2.34582e-05
2.02389e-05
1.69346e-05
1.12247e-05
5.50971e-06
2.20439e-06
7.53343e-07
4.79169e-08
2.49861e-07
3.45521e-06
8.26102e-06
9.875e-06
1.03997e-05
1.08466e-05
1.37072e-05
1.73824e-05
1.82829e-05
1.84502e-05
1.69529e-05
1.61183e-05
1.58072e-05
1.7287e-05
1.87772e-05
2.06141e-05
2.25362e-05
2.45797e-05
2.63769e-05
2.82955e-05
2.98412e-05
3.11376e-05
3.18284e-05
3.23925e-05
3.27116e-05
3.28883e-05
3.27793e-05
3.24209e-05
3.17031e-05
3.0552e-05
2.86404e-05
2.66962e-05
2.51443e-05
2.14678e-05
1.78937e-05
1.1083e-05
4.86169e-06
2.39298e-06
9.75059e-07
3.92621e-08
5.68412e-07
7.50007e-06
1.4276e-05
1.65452e-05
1.76769e-05
1.95803e-05
2.20771e-05
2.23764e-05
2.19005e-05
1.8966e-05
1.81365e-05
1.95718e-05
2.15904e-05
2.44181e-05
2.64372e-05
2.89872e-05
3.08372e-05
3.25964e-05
3.38539e-05
3.50309e-05
3.58352e-05
3.64974e-05
3.68575e-05
3.70718e-05
3.70509e-05
3.68238e-05
3.634e-05
3.5575e-05
3.44434e-05
3.29436e-05
3.08981e-05
2.82927e-05
2.51118e-05
2.17707e-05
1.88739e-05
1.45766e-05
5.55641e-06
1.88536e-06
6.75068e-07
2.70436e-08
1.06183e-06
1.34236e-05
2.11162e-05
2.25454e-05
2.35477e-05
2.52921e-05
2.538e-05
2.465e-05
2.17932e-05
2.07851e-05
2.27686e-05
2.50725e-05
2.79687e-05
3.06721e-05
3.27833e-05
3.45516e-05
3.63497e-05
3.76381e-05
3.90351e-05
3.97697e-05
4.04904e-05
4.08788e-05
4.11348e-05
4.11777e-05
4.10782e-05
4.07931e-05
4.02943e-05
3.95076e-05
3.83461e-05
3.65789e-05
3.42613e-05
3.15221e-05
2.85429e-05
2.49206e-05
2.02385e-05
1.67192e-05
1.07162e-05
2.89214e-06
6.74232e-07
3.08244e-08
1.76126e-06
1.97044e-05
2.69923e-05
2.74249e-05
2.7941e-05
2.74341e-05
2.6623e-05
2.42204e-05
2.27021e-05
2.4867e-05
2.72685e-05
3.02887e-05
3.32195e-05
3.54867e-05
3.72284e-05
3.89947e-05
4.05798e-05
4.18144e-05
4.27384e-05
4.3419e-05
4.39735e-05
4.428e-05
4.44431e-05
4.44098e-05
4.42576e-05
4.39501e-05
4.34984e-05
4.28648e-05
4.19947e-05
4.07814e-05
3.82813e-05
3.492e-05
3.15084e-05
2.78196e-05
2.35259e-05
1.8653e-05
1.3571e-05
4.61503e-06
1.02679e-06
5.69185e-08
2.62989e-06
2.45619e-05
3.15864e-05
3.07677e-05
2.94076e-05
2.85417e-05
2.63082e-05
2.41302e-05
2.61424e-05
2.88866e-05
3.17496e-05
3.49693e-05
3.72427e-05
3.91362e-05
4.09779e-05
4.25517e-05
4.38772e-05
4.49402e-05
4.57431e-05
4.62998e-05
4.66681e-05
4.6881e-05
4.69938e-05
4.69941e-05
4.68771e-05
4.66497e-05
4.63039e-05
4.58163e-05
4.51322e-05
4.41531e-05
4.30364e-05
4.09343e-05
3.73473e-05
3.32889e-05
2.82507e-05
2.19796e-05
1.60738e-05
8.51305e-06
1.64967e-06
1.27843e-07
3.55753e-06
2.88101e-05
3.44576e-05
3.27601e-05
3.12192e-05
2.83519e-05
2.58883e-05
2.68933e-05
2.97699e-05
3.27528e-05
3.58061e-05
3.84332e-05
4.0307e-05
4.22912e-05
4.38939e-05
4.52671e-05
4.63602e-05
4.71995e-05
4.77616e-05
4.82538e-05
4.87123e-05
4.89488e-05
4.91047e-05
4.91386e-05
4.90563e-05
4.8872e-05
4.85863e-05
4.82062e-05
4.77094e-05
4.7026e-05
4.59926e-05
4.44645e-05
4.1823e-05
3.79397e-05
3.40458e-05
2.78308e-05
1.94669e-05
1.08148e-05
2.19381e-06
3.19537e-07
4.34393e-06
3.16276e-05
3.68414e-05
3.48215e-05
3.11042e-05
2.79974e-05
2.71948e-05
3.00031e-05
3.3256e-05
3.6172e-05
3.89832e-05
4.10384e-05
4.29053e-05
4.45502e-05
4.60401e-05
4.71731e-05
4.81143e-05
4.8886e-05
4.96224e-05
5.01273e-05
5.04305e-05
5.09845e-05
5.11084e-05
5.1215e-05
5.1128e-05
5.09192e-05
5.05776e-05
5.01425e-05
4.96447e-05
4.90978e-05
4.84362e-05
4.74296e-05
4.53245e-05
4.16022e-05
3.74791e-05
3.32556e-05
2.52678e-05
1.49833e-05
4.75911e-06
8.67597e-07
4.92108e-06
3.3305e-05
3.85362e-05
3.51389e-05
3.08291e-05
2.8031e-05
2.98089e-05
3.30943e-05
3.62743e-05
3.88671e-05
4.12665e-05
4.30768e-05
4.48649e-05
4.63555e-05
4.76449e-05
4.86986e-05
4.96554e-05
5.05181e-05
5.1313e-05
5.20103e-05
5.23995e-05
5.30579e-05
5.33281e-05
5.34796e-05
5.34259e-05
5.31806e-05
5.27442e-05
5.2146e-05
5.14454e-05
5.07218e-05
5.00389e-05
4.93605e-05
4.84181e-05
4.52243e-05
4.04987e-05
3.6453e-05
2.97066e-05
1.85494e-05
6.32205e-06
1.54377e-06
5.3343e-06
3.45384e-05
4.01367e-05
3.53415e-05
3.05166e-05
2.97071e-05
3.24662e-05
3.57891e-05
3.85927e-05
4.08203e-05
4.30042e-05
4.47072e-05
4.63784e-05
4.77416e-05
4.89714e-05
5.00765e-05
5.11403e-05
5.21442e-05
5.30803e-05
5.4011e-05
5.4584e-05
5.51337e-05
5.5698e-05
5.58678e-05
5.58923e-05
5.56581e-05
5.51824e-05
5.44611e-05
5.35415e-05
5.25167e-05
5.15159e-05
5.06346e-05
4.97941e-05
4.85382e-05
4.4118e-05
3.97883e-05
3.45385e-05
2.33345e-05
9.00062e-06
2.19295e-06
5.55546e-06
3.48445e-05
4.05839e-05
3.55491e-05
3.08312e-05
3.17305e-05
3.4801e-05
3.78824e-05
4.02511e-05
4.23492e-05
4.43697e-05
4.59884e-05
4.75688e-05
4.88973e-05
5.01808e-05
5.14119e-05
5.26274e-05
5.37917e-05
5.48761e-05
5.59882e-05
5.67106e-05
5.71375e-05
5.79228e-05
5.81199e-05
5.82253e-05
5.80586e-05
5.76305e-05
5.69004e-05
5.58724e-05
5.46142e-05
5.32852e-05
5.21046e-05
5.12189e-05
5.0463e-05
4.68378e-05
4.18466e-05
3.77663e-05
2.70074e-05
1.13143e-05
2.7149e-06
5.5474e-06
3.47867e-05
4.09779e-05
3.55787e-05
3.17611e-05
3.35545e-05
3.66612e-05
3.94536e-05
4.15026e-05
4.35509e-05
4.54336e-05
4.70072e-05
4.85537e-05
4.99328e-05
5.13341e-05
5.27199e-05
5.40922e-05
5.53993e-05
5.65989e-05
5.77683e-05
5.85208e-05
5.8952e-05
5.97656e-05
5.99831e-05
6.01398e-05
6.00696e-05
5.97662e-05
5.91576e-05
5.81826e-05
5.68304e-05
5.52062e-05
5.3561e-05
5.22065e-05
5.12439e-05
4.97065e-05
4.42612e-05
4.07179e-05
3.10189e-05
1.39393e-05
3.20302e-06
5.47767e-06
3.45083e-05
4.12897e-05
3.56117e-05
3.3008e-05
3.50864e-05
3.80766e-05
4.05611e-05
4.24814e-05
4.44825e-05
4.6268e-05
4.78385e-05
4.94052e-05
5.0887e-05
5.24274e-05
5.39637e-05
5.54696e-05
5.68789e-05
5.81372e-05
5.92828e-05
6.00162e-05
6.0428e-05
6.11534e-05
6.13405e-05
6.14945e-05
6.15034e-05
6.13558e-05
6.09644e-05
6.021e-05
5.89864e-05
5.72935e-05
5.53408e-05
5.35634e-05
5.24119e-05
5.18816e-05
4.69621e-05
4.25254e-05
3.41101e-05
1.63379e-05
3.65337e-06
5.31184e-06
3.3901e-05
4.10835e-05
3.58429e-05
3.40498e-05
3.62671e-05
3.91062e-05
4.13722e-05
4.32449e-05
4.51987e-05
4.69299e-05
4.85289e-05
5.01513e-05
5.17544e-05
5.3429e-05
5.50966e-05
5.67082e-05
5.81866e-05
5.94686e-05
6.05428e-05
6.12169e-05
6.15803e-05
6.2139e-05
6.22329e-05
6.23171e-05
6.23523e-05
6.23404e-05
6.22e-05
6.17752e-05
6.08656e-05
5.93205e-05
5.71919e-05
5.48632e-05
5.29514e-05
5.18772e-05
4.90303e-05
4.42549e-05
3.70835e-05
1.87173e-05
4.0929e-06
5.02838e-06
3.30473e-05
4.06399e-05
3.61409e-05
3.48588e-05
3.71269e-05
3.98411e-05
4.19775e-05
4.3831e-05
4.57441e-05
4.74549e-05
4.90981e-05
5.07905e-05
5.25107e-05
5.43024e-05
5.60805e-05
5.77784e-05
5.93104e-05
6.06038e-05
6.16049e-05
6.21912e-05
6.24858e-05
6.28351e-05
6.27816e-05
6.27286e-05
6.27138e-05
6.27696e-05
6.28408e-05
6.27667e-05
6.22864e-05
6.11184e-05
5.91386e-05
5.66166e-05
5.42478e-05
5.26147e-05
5.0765e-05
4.54904e-05
3.93998e-05
2.09632e-05
4.51903e-06
4.70486e-06
3.20017e-05
4.00146e-05
3.64084e-05
3.54432e-05
3.77177e-05
4.0354e-05
4.24241e-05
4.42715e-05
4.61498e-05
4.78598e-05
4.95491e-05
5.13085e-05
5.31272e-05
5.5015e-05
5.68856e-05
5.86595e-05
6.0243e-05
6.15506e-05
6.25147e-05
6.29989e-05
6.32136e-05
6.33446e-05
6.31138e-05
6.28765e-05
6.2744e-05
6.27922e-05
6.3006e-05
6.32486e-05
6.32288e-05
6.25473e-05
6.08612e-05
5.82194e-05
5.53628e-05
5.33852e-05
5.23378e-05
4.68161e-05
4.13267e-05
2.31281e-05
4.94204e-06
4.31787e-06
3.09444e-05
3.92599e-05
3.65942e-05
3.58508e-05
3.80959e-05
4.06891e-05
4.27341e-05
4.45801e-05
4.6432e-05
4.81493e-05
4.98725e-05
5.16819e-05
5.35741e-05
5.55358e-05
5.74823e-05
5.93252e-05
6.09634e-05
6.22984e-05
6.32492e-05
6.3648e-05
6.37802e-05
6.37113e-05
6.33004e-05
6.28589e-05
6.25606e-05
6.25321e-05
6.28032e-05
6.32884e-05
6.3707e-05
6.35969e-05
6.24254e-05
5.99393e-05
5.66729e-05
5.39945e-05
5.28634e-05
4.81432e-05
4.29098e-05
2.52052e-05
5.36115e-06
3.94125e-06
2.9724e-05
3.84093e-05
3.66917e-05
3.60841e-05
3.8286e-05
4.08714e-05
4.29297e-05
4.47811e-05
4.66036e-05
4.8319e-05
5.00628e-05
5.19042e-05
5.38387e-05
5.58427e-05
5.78387e-05
5.97352e-05
6.14228e-05
6.27889e-05
6.37391e-05
6.4087e-05
6.41407e-05
6.39176e-05
6.33491e-05
6.27139e-05
6.22344e-05
6.20932e-05
6.23524e-05
6.30001e-05
6.37891e-05
6.42381e-05
6.36684e-05
6.15287e-05
5.80495e-05
5.46848e-05
5.30575e-05
4.95255e-05
4.42621e-05
2.71276e-05
5.77695e-06
3.49667e-06
2.87705e-05
3.74705e-05
3.66625e-05
3.62296e-05
3.83371e-05
4.09187e-05
4.30025e-05
4.48532e-05
4.66558e-05
4.83735e-05
5.01051e-05
5.19268e-05
5.38601e-05
5.58796e-05
5.79081e-05
5.98403e-05
6.15548e-05
6.29341e-05
6.38792e-05
6.42165e-05
6.41852e-05
6.37741e-05
6.30593e-05
6.23099e-05
6.17709e-05
6.15288e-05
6.173e-05
6.24748e-05
6.35608e-05
6.45329e-05
6.46211e-05
6.30034e-05
5.95128e-05
5.54906e-05
5.30537e-05
5.05981e-05
4.54477e-05
2.90038e-05
6.1917e-06
3.13356e-06
2.73883e-05
3.65549e-05
3.65626e-05
3.6231e-05
3.82321e-05
4.08214e-05
4.29731e-05
4.48493e-05
4.66151e-05
4.82826e-05
5.00009e-05
5.18418e-05
5.37762e-05
5.57658e-05
5.77289e-05
5.9576e-05
6.1236e-05
6.25961e-05
6.35423e-05
6.39532e-05
6.38923e-05
6.33697e-05
6.25954e-05
6.17216e-05
6.09878e-05
6.05944e-05
6.08471e-05
6.17907e-05
6.31022e-05
6.45318e-05
6.52622e-05
6.42583e-05
6.09528e-05
5.64524e-05
5.33291e-05
5.1373e-05
4.65281e-05
3.07058e-05
6.60079e-06
2.82266e-06
2.58174e-05
3.51125e-05
3.65701e-05
3.62015e-05
3.79729e-05
4.06104e-05
4.27964e-05
4.46632e-05
4.64214e-05
4.81265e-05
4.97602e-05
5.13715e-05
5.31078e-05
5.49682e-05
5.68883e-05
5.87793e-05
6.04831e-05
6.18717e-05
6.28309e-05
6.32804e-05
6.32557e-05
6.28719e-05
6.21869e-05
6.13041e-05
6.04165e-05
5.9899e-05
5.99902e-05
6.07648e-05
6.23372e-05
6.43097e-05
6.56473e-05
6.52975e-05
6.23077e-05
5.74191e-05
5.37179e-05
5.18835e-05
4.75329e-05
3.23508e-05
7.00786e-06
2.5459e-06
2.41228e-05
3.35144e-05
3.65214e-05
3.61487e-05
3.77474e-05
4.01175e-05
4.2538e-05
4.44888e-05
4.61946e-05
4.76798e-05
4.92248e-05
5.09529e-05
5.27282e-05
5.45184e-05
5.63294e-05
5.80829e-05
5.96684e-05
6.09677e-05
6.18748e-05
6.23118e-05
6.22238e-05
6.18737e-05
6.12482e-05
6.04314e-05
5.97937e-05
5.94338e-05
5.94619e-05
6.00482e-05
6.16785e-05
6.38124e-05
6.57354e-05
6.61697e-05
6.35712e-05
5.83503e-05
5.41076e-05
5.22669e-05
4.84006e-05
3.39025e-05
7.40582e-06
2.29334e-06
2.23363e-05
3.15885e-05
3.63244e-05
3.61096e-05
3.74007e-05
3.97957e-05
4.19185e-05
4.39454e-05
4.56619e-05
4.72783e-05
4.88635e-05
5.04415e-05
5.20557e-05
5.36851e-05
5.53043e-05
5.68654e-05
5.82939e-05
5.94844e-05
6.0343e-05
6.08022e-05
6.07899e-05
6.05198e-05
5.99987e-05
5.92727e-05
5.86422e-05
5.82847e-05
5.84952e-05
5.95616e-05
6.12869e-05
6.34653e-05
6.57419e-05
6.66879e-05
6.46949e-05
5.91445e-05
5.44125e-05
5.24707e-05
4.91889e-05
3.54005e-05
7.79723e-06
2.0558e-06
2.04899e-05
2.97321e-05
3.59152e-05
3.5891e-05
3.69284e-05
3.92773e-05
4.15645e-05
4.3422e-05
4.51866e-05
4.68182e-05
4.8225e-05
4.96092e-05
5.10454e-05
5.25346e-05
5.402e-05
5.54371e-05
5.67197e-05
5.7795e-05
5.85902e-05
5.90566e-05
5.91166e-05
5.89305e-05
5.85474e-05
5.79939e-05
5.75134e-05
5.72758e-05
5.74984e-05
5.84202e-05
6.02885e-05
6.30667e-05
6.57025e-05
6.69438e-05
6.53742e-05
5.98845e-05
5.45985e-05
5.2546e-05
4.99385e-05
3.67989e-05
8.17476e-06
1.83029e-06
1.8629e-05
2.791e-05
3.49091e-05
3.60717e-05
3.65563e-05
3.84684e-05
4.09595e-05
4.29687e-05
4.46705e-05
4.61035e-05
4.74697e-05
4.87612e-05
5.00441e-05
5.13463e-05
5.26416e-05
5.38808e-05
5.50075e-05
5.59624e-05
5.66894e-05
5.71575e-05
5.73142e-05
5.72153e-05
5.69851e-05
5.66439e-05
5.6356e-05
5.62919e-05
5.66574e-05
5.77024e-05
5.9636e-05
6.24204e-05
6.54342e-05
6.7321e-05
6.60658e-05
6.0376e-05
5.4617e-05
5.25308e-05
5.0578e-05
3.81276e-05
8.53946e-06
1.60884e-06
1.6736e-05
2.60858e-05
3.32449e-05
3.61007e-05
3.63701e-05
3.78157e-05
4.00682e-05
4.22461e-05
4.39423e-05
4.53699e-05
4.66525e-05
4.78383e-05
4.89794e-05
5.01082e-05
5.12195e-05
5.22833e-05
5.32575e-05
5.40973e-05
5.47602e-05
5.52237e-05
5.54948e-05
5.54818e-05
5.54059e-05
5.52932e-05
5.5216e-05
5.5348e-05
5.58716e-05
5.70253e-05
5.90396e-05
6.19647e-05
6.5146e-05
6.72555e-05
6.65612e-05
6.06185e-05
5.44682e-05
5.22914e-05
5.11015e-05
3.93372e-05
8.88466e-06
1.39174e-06
1.48761e-05
2.41536e-05
3.13357e-05
3.59698e-05
3.61222e-05
3.71722e-05
3.90687e-05
4.12389e-05
4.30449e-05
4.45257e-05
4.57705e-05
4.68717e-05
4.78914e-05
4.88693e-05
4.98166e-05
5.07213e-05
5.15576e-05
5.22953e-05
5.29065e-05
5.33604e-05
5.37565e-05
5.38241e-05
5.38949e-05
5.40097e-05
5.4145e-05
5.44815e-05
5.5176e-05
5.6455e-05
5.85277e-05
6.14899e-05
6.47399e-05
6.69883e-05
6.64707e-05
6.0861e-05
5.40472e-05
5.18141e-05
5.15388e-05
4.04622e-05
9.21155e-06
1.16908e-06
1.30119e-05
2.26257e-05
2.89216e-05
3.52086e-05
3.62292e-05
3.67699e-05
3.82406e-05
4.01528e-05
4.2016e-05
4.35523e-05
4.47992e-05
4.58515e-05
4.67838e-05
4.76464e-05
4.84641e-05
4.92407e-05
4.99662e-05
5.06227e-05
5.12008e-05
5.16453e-05
5.21693e-05
5.23094e-05
5.25132e-05
5.28421e-05
5.31776e-05
5.37111e-05
5.45704e-05
5.59709e-05
5.80743e-05
6.10084e-05
6.41762e-05
6.63833e-05
6.58959e-05
6.04605e-05
5.33593e-05
5.10219e-05
5.1848e-05
4.14386e-05
9.51482e-06
9.65814e-07
1.14415e-05
2.12748e-05
2.65584e-05
3.31664e-05
3.61899e-05
3.6598e-05
3.75953e-05
3.92009e-05
4.09647e-05
4.25239e-05
4.37937e-05
4.48291e-05
4.57062e-05
4.64859e-05
4.72062e-05
4.78851e-05
4.85265e-05
4.9123e-05
4.96811e-05
5.0129e-05
5.07626e-05
5.09649e-05
5.12884e-05
5.18102e-05
5.23195e-05
5.30276e-05
5.40252e-05
5.55233e-05
5.7603e-05
6.04144e-05
6.33227e-05
6.53191e-05
6.46478e-05
5.95547e-05
5.24916e-05
4.9858e-05
5.20013e-05
4.22816e-05
9.79835e-06
7.94742e-07
1.01131e-05
2.03101e-05
2.45694e-05
3.07945e-05
3.55659e-05
3.65194e-05
3.7262e-05
3.845e-05
3.99541e-05
4.14344e-05
4.27046e-05
4.37452e-05
4.46065e-05
4.53477e-05
4.60147e-05
4.66373e-05
4.72263e-05
4.77981e-05
4.83248e-05
4.88685e-05
4.94676e-05
4.97669e-05
5.02416e-05
5.08923e-05
5.15346e-05
5.23788e-05
5.34624e-05
5.50059e-05
5.69668e-05
5.95356e-05
6.19741e-05
6.35831e-05
6.25318e-05
5.77838e-05
5.09861e-05
4.84848e-05
5.19186e-05
4.28745e-05
1.00617e-05
6.41823e-07
8.97635e-06
1.96439e-05
2.31486e-05
2.85169e-05
3.38161e-05
3.61539e-05
3.71694e-05
3.81544e-05
3.93594e-05
4.06451e-05
4.18269e-05
4.28269e-05
4.36555e-05
4.4358e-05
4.4978e-05
4.55579e-05
4.60956e-05
4.66675e-05
4.71217e-05
4.78311e-05
4.82847e-05
4.86849e-05
4.93167e-05
5.00141e-05
5.07308e-05
5.16506e-05
5.27293e-05
5.42235e-05
5.59127e-05
5.80845e-05
5.98201e-05
6.08894e-05
5.93313e-05
5.50614e-05
4.90326e-05
4.70513e-05
5.15586e-05
4.30848e-05
1.0316e-05
5.03061e-07
8.16166e-06
1.91305e-05
2.26667e-05
2.67643e-05
3.18912e-05
3.54388e-05
3.69469e-05
3.80286e-05
3.90638e-05
4.01312e-05
4.11577e-05
4.20676e-05
4.28411e-05
4.35024e-05
4.40785e-05
4.46299e-05
4.51162e-05
4.56971e-05
4.60747e-05
4.68854e-05
4.72362e-05
4.76753e-05
4.83663e-05
4.90524e-05
4.9743e-05
5.06314e-05
5.15517e-05
5.28417e-05
5.40398e-05
5.56357e-05
5.64538e-05
5.69027e-05
5.48556e-05
5.1268e-05
4.64595e-05
4.57085e-05
5.08634e-05
4.25919e-05
1.05746e-05
4.3288e-07
7.95615e-06
1.84034e-05
2.281e-05
2.51214e-05
2.99121e-05
3.43453e-05
3.69753e-05
3.83758e-05
3.94607e-05
4.04115e-05
4.12723e-05
4.20372e-05
4.26887e-05
4.32492e-05
4.37205e-05
4.41761e-05
4.45542e-05
4.50354e-05
4.534e-05
4.59767e-05
4.63257e-05
4.66625e-05
4.71876e-05
4.77639e-05
4.82542e-05
4.89301e-05
4.94615e-05
5.03304e-05
5.07874e-05
5.16572e-05
5.14672e-05
5.1376e-05
4.9113e-05
4.65899e-05
4.32346e-05
4.37723e-05
4.99384e-05
4.20367e-05
1.07274e-05
4.51284e-07
8.82151e-06
1.76182e-05
2.28637e-05
2.5351e-05
2.85032e-05
3.25812e-05
3.63175e-05
3.87546e-05
4.0104e-05
4.10862e-05
4.18445e-05
4.24418e-05
4.29277e-05
4.332e-05
4.36507e-05
4.39611e-05
4.42364e-05
4.45007e-05
4.46968e-05
4.48745e-05
4.51468e-05
4.52182e-05
4.5344e-05
4.55859e-05
4.56456e-05
4.58718e-05
4.57746e-05
4.60161e-05
4.56114e-05
4.57709e-05
4.48067e-05
4.45255e-05
4.26569e-05
4.1627e-05
4.04789e-05
4.27499e-05
4.88159e-05
4.13398e-05
1.07819e-05
6.48232e-07
1.13664e-05
1.83009e-05
2.33603e-05
2.62848e-05
2.93688e-05
3.26389e-05
3.60072e-05
3.92247e-05
4.16766e-05
4.30072e-05
4.38883e-05
4.44853e-05
4.48328e-05
4.51115e-05
4.50975e-05
4.49129e-05
4.45937e-05
4.4244e-05
4.38028e-05
4.34066e-05
4.29081e-05
4.24048e-05
4.2131e-05
4.17518e-05
4.11672e-05
4.07915e-05
4.00624e-05
3.971e-05
3.87859e-05
3.86216e-05
3.76245e-05
3.7783e-05
3.7073e-05
3.77683e-05
3.9216e-05
4.26175e-05
4.7034e-05
3.9045e-05
1.06949e-05
1.05787e-06
1.53621e-05
2.07272e-05
2.49724e-05
2.82911e-05
3.16044e-05
3.50371e-05
3.7853e-05
4.07182e-05
4.33776e-05
4.54734e-05
4.64578e-05
4.68251e-05
4.66895e-05
4.61606e-05
4.54074e-05
4.44512e-05
4.33641e-05
4.21956e-05
4.09824e-05
4.00626e-05
3.8769e-05
3.79717e-05
3.7208e-05
3.61723e-05
3.52366e-05
3.46228e-05
3.38911e-05
3.3556e-05
3.30584e-05
3.33063e-05
3.32085e-05
3.43699e-05
3.50699e-05
3.75835e-05
3.98633e-05
4.44591e-05
4.48034e-05
3.70758e-05
1.03583e-05
1.7515e-06
1.98339e-05
2.33788e-05
2.77272e-05
3.1483e-05
3.47971e-05
3.78346e-05
4.01183e-05
4.12389e-05
4.25948e-05
4.36398e-05
4.39032e-05
4.37437e-05
4.31894e-05
4.24443e-05
4.14493e-05
4.03832e-05
3.93253e-05
3.81768e-05
3.69384e-05
3.604e-05
3.51411e-05
3.41375e-05
3.34345e-05
3.28822e-05
3.25817e-05
3.24652e-05
3.25895e-05
3.30793e-05
3.36366e-05
3.47203e-05
3.57179e-05
3.77472e-05
3.93044e-05
4.245e-05
4.4533e-05
4.68287e-05
4.2895e-05
3.34702e-05
9.72525e-06
2.87381e-06
2.3347e-05
2.62615e-05
3.08534e-05
3.41533e-05
3.65939e-05
3.84348e-05
3.95584e-05
3.98821e-05
4.02762e-05
4.0527e-05
4.05361e-05
4.04393e-05
4.00503e-05
3.98453e-05
3.91217e-05
3.88731e-05
3.85294e-05
3.80504e-05
3.77658e-05
3.74951e-05
3.74445e-05
3.74369e-05
3.76596e-05
3.7923e-05
3.84455e-05
3.90193e-05
3.98151e-05
4.07751e-05
4.1737e-05
4.3195e-05
4.4186e-05
4.61855e-05
4.67206e-05
4.93578e-05
4.81506e-05
4.65184e-05
4.0373e-05
2.52858e-05
8.47232e-06
1.95008e-06
2.98882e-06
3.86778e-06
4.76234e-06
5.58811e-06
6.33391e-06
6.97626e-06
7.49063e-06
7.85683e-06
8.08524e-06
8.2286e-06
8.26966e-06
8.25283e-06
8.20116e-06
8.11392e-06
7.99574e-06
7.869e-06
7.74414e-06
7.61567e-06
7.49595e-06
7.38476e-06
7.28557e-06
7.20333e-06
7.13295e-06
7.08813e-06
7.0531e-06
7.05473e-06
7.06883e-06
7.11099e-06
7.16353e-06
7.27247e-06
7.37848e-06
7.61664e-06
7.80765e-06
8.23183e-06
8.50944e-06
8.97866e-06
9.02118e-06
8.71674e-06
7.28052e-06
)
;

boundaryField
{
    movingWall
    {
        type            nutkWallFunction;
        Cmu             0.09;
        kappa           0.41;
        E               9.8;
        value           uniform 0;
    }
    fixedWalls
    {
        type            nutkWallFunction;
        Cmu             0.09;
        kappa           0.41;
        E               9.8;
        value           uniform 0;
    }
    frontAndBack
    {
        type            empty;
    }
}


// ************************************************************************* //
