/*--------------------------------*- C++ -*----------------------------------*\
  =========                 |
  \\      /  F ield         | OpenFOAM: The Open Source CFD Toolbox
   \\    /   O peration     | Website:  https://openfoam.org
    \\  /    A nd           | Version:  12
     \\/     M anipulation  |
\*---------------------------------------------------------------------------*/
FoamFile
{
    format      ascii;
    class       volScalarField;
    location    "9.5";
    object      p;
}
// * * * * * * * * * * * * * * * * * * * * * * * * * * * * * * * * * * * * * //

dimensions      [0 2 -2 0 0 0 0];

internalField   nonuniform List<scalar> 
1600
(
6.26535e-09
-2.82758e-05
-0.000119812
-0.00024573
-0.000359028
-0.000445762
-0.000525094
-0.000633729
-0.000780474
-0.000965444
-0.00120004
-0.00154956
-0.00197479
-0.00214167
-0.0024014
-0.00304204
-0.00397211
-0.00501937
-0.00601004
-0.006808
-0.00731496
-0.00746451
-0.00719961
-0.00647533
-0.00532962
-0.00378039
-0.00183828
0.000428475
0.00289452
0.00533352
0.00745909
0.00895596
0.00960222
0.00936971
0.00834953
0.00729316
0.00663041
0.00651698
0.00662435
0.00667579
-1.99048e-05
-7.52153e-05
-0.00017682
-0.000297007
-0.000378966
-0.000419698
-0.000459588
-0.000542616
-0.000674843
-0.000825793
-0.000972386
-0.00121538
-0.00166475
-0.00223087
-0.00288572
-0.0037201
-0.00471057
-0.00575265
-0.0067132
-0.00747857
-0.00796205
-0.00810691
-0.00787076
-0.0072355
-0.00617712
-0.00469465
-0.00283054
-0.000645107
0.00173315
0.00412417
0.00626727
0.00785911
0.00865692
0.00858167
0.00776391
0.00673353
0.00621317
0.00628358
0.00646975
0.00655876
-5.14394e-05
-0.000153709
-0.000284042
-0.000396617
-0.000438172
-0.00042104
-0.000408321
-0.00043281
-0.000525046
-0.000747351
-0.00112329
-0.00162833
-0.00228787
-0.00310645
-0.00406074
-0.00509649
-0.00615944
-0.00717604
-0.0080665
-0.00876053
-0.009196
-0.0093182
-0.00909428
-0.00850815
-0.00753631
-0.00617654
-0.00445953
-0.00243912
-0.000208595
0.00209146
0.00424697
0.00600834
0.00712656
0.0074559
0.00708995
0.00643427
0.00609753
0.00615497
0.00633061
0.00638953
-6.02691e-05
-0.000210417
-0.000380278
-0.000478548
-0.000475363
-0.000425677
-0.000407363
-0.000470126
-0.000672407
-0.00110133
-0.00178298
-0.00264948
-0.00362725
-0.00468994
-0.00581354
-0.00694159
-0.0080186
-0.00899286
-0.00981915
-0.0104522
-0.0108404
-0.0109355
-0.0107139
-0.0101659
-0.009279
-0.00805573
-0.00651716
-0.00470211
-0.00267265
-0.000521753
0.00160127
0.00350702
0.00497824
0.00586317
0.00618932
0.0061602
0.00615951
0.00619272
0.006272
0.00627205
7.99029e-05
-0.000139585
-0.000329793
-0.000427289
-0.000439546
-0.000432439
-0.000500115
-0.000734515
-0.00121409
-0.0019792
-0.00299277
-0.00415626
-0.00538092
-0.0066174
-0.00783011
-0.0089862
-0.0100535
-0.0110023
-0.0117883
-0.0123637
-0.0126924
-0.0127587
-0.0125462
-0.0120425
-0.0112433
-0.0101537
-0.00878701
-0.00716793
-0.00533922
-0.00336911
-0.00135188
0.000594154
0.00234042
0.0037764
0.00485318
0.00559896
0.00608527
0.00631347
0.00626929
0.00619796
0.00044058
0.000141194
-7.64936e-05
-0.00021802
-0.000316721
-0.000459115
-0.00075778
-0.00131099
-0.00216224
-0.00327984
-0.00457571
-0.00595057
-0.00733257
-0.00867064
-0.00993553
-0.0111056
-0.01215
-0.0130383
-0.0137405
-0.0142392
-0.0145165
-0.0145612
-0.0143645
-0.0139083
-0.0131975
-0.0122372
-0.0110369
-0.00961174
-0.00798623
-0.00619848
-0.00430301
-0.00237066
-0.000474779
0.00134257
0.00303639
0.00451116
0.00560383
0.00622182
0.00620761
0.00608439
0.00099181
0.000633689
0.000353972
0.000112834
-0.000160691
-0.000574323
-0.00123107
-0.00218586
-0.00341474
-0.00483591
-0.006346
-0.00786497
-0.00933632
-0.010719
-0.0119888
-0.0131253
-0.0141101
-0.0149267
-0.0155596
-0.0159992
-0.0162355
-0.0162614
-0.0160709
-0.0156573
-0.0150217
-0.0141696
-0.0131094
-0.0118519
-0.0104114
-0.00880662
-0.0070611
-0.00520212
-0.00325103
-0.00121836
0.00086753
0.00290218
0.00462582
0.00574783
0.00613535
0.00590658
0.00165422
0.00125382
0.000855003
0.000452104
-8.19196e-05
-0.000856577
-0.0019302
-0.00328512
-0.00484201
-0.00649505
-0.0081543
-0.00975938
-0.0112662
-0.0126471
-0.0138857
-0.0149703
-0.0158929
-0.0166461
-0.0172225
-0.0176162
-0.0178217
-0.0178347
-0.0176519
-0.0172721
-0.0166967
-0.0159307
-0.0149811
-0.0138564
-0.0125651
-0.0111154
-0.00951314
-0.007759
-0.00584269
-0.0037422
-0.00145277
0.000940132
0.00318715
0.00492059
0.00586701
0.00554599
0.00224313
0.00176002
0.00124158
0.000642937
-0.000201537
-0.00136649
-0.00283624
-0.00453393
-0.00634073
-0.00815427
-0.00990566
-0.0115495
-0.0130555
-0.0144089
-0.0156027
-0.0166335
-0.0175
-0.0181998
-0.0187304
-0.0190889
-0.0192724
-0.0192787
-0.0191062
-0.0187555
-0.0182289
-0.0175312
-0.0166684
-0.0156476
-0.0144744
-0.0131511
-0.0116737
-0.010029
-0.00819099
-0.00611991
-0.00377769
-0.0011953
0.00142379
0.00370246
0.00515281
0.00524877
0.00257536
0.00202147
0.00137247
0.000557614
-0.000601219
-0.00212326
-0.0039199
-0.00586851
-0.00784447
-0.0097555
-0.0115509
-0.0131984
-0.0146815
-0.0159962
-0.0171427
-0.018124
-0.0189425
-0.0195995
-0.0200949
-0.0204279
-0.0205972
-0.0206019
-0.0204414
-0.0201166
-0.0196304
-0.0189869
-0.0181918
-0.0172511
-0.0161695
-0.0149473
-0.0135773
-0.0120407
-0.0103052
-0.00832246
-0.00603122
-0.00340793
-0.000603671
0.00202552
0.00402537
0.00509419
0.00253877
0.0019286
0.0011551
0.000135791
-0.00130071
-0.00310235
-0.00513466
-0.00724138
-0.00931373
-0.0112677
-0.0130689
-0.0146957
-0.0161435
-0.0174154
-0.0185172
-0.0194555
-0.0202352
-0.0208591
-0.021329
-0.0216449
-0.0218064
-0.0218135
-0.0216661
-0.0213652
-0.0209134
-0.0203145
-0.0195734
-0.0186956
-0.0176855
-0.0165435
-0.0152632
-0.0138264
-0.0122012
-0.0103396
-0.00817241
-0.00563321
-0.00280224
-3.38407e-05
0.00234986
0.00398371
0.00210406
0.00144997
0.000570235
-0.000618103
-0.00226147
-0.00425482
-0.00642281
-0.00861394
-0.0107197
-0.0126736
-0.0144523
-0.016043
-0.0174491
-0.0186784
-0.0197401
-0.0206423
-0.0213911
-0.0219904
-0.0224422
-0.0227473
-0.022906
-0.0229182
-0.0227844
-0.0225056
-0.022084
-0.0215229
-0.0208266
-0.0200001
-0.0190478
-0.0179717
-0.0167676
-0.0154214
-0.0139053
-0.0121761
-0.0101704
-0.00780351
-0.00506737
-0.00232287
0.000108647
0.00182964
0.0012995
0.00062191
-0.000331881
-0.00164471
-0.0034143
-0.00551264
-0.00773305
-0.00994598
-0.0120388
-0.0139622
-0.0156997
-0.0172455
-0.0186079
-0.019797
-0.0208233
-0.0216957
-0.0224202
-0.023001
-0.0234401
-0.0237389
-0.0238976
-0.0239165
-0.0237963
-0.0235379
-0.0231433
-0.0226151
-0.0219572
-0.0211742
-0.0202708
-0.0192506
-0.0181127
-0.0168487
-0.0154374
-0.0138432
-0.0120127
-0.00986497
-0.00733842
-0.00470961
-0.00245664
-0.000882969
0.000210026
-0.000467643
-0.00146049
-0.00284795
-0.0046787
-0.00680163
-0.00901668
-0.0112039
-0.0132521
-0.0151257
-0.0168116
-0.0183089
-0.0196281
-0.0207802
-0.0217758
-0.0226232
-0.0233284
-0.023895
-0.0243253
-0.0246203
-0.0247808
-0.024807
-0.0246997
-0.02446
-0.0240895
-0.0235906
-0.0229665
-0.0222217
-0.0213613
-0.0203902
-0.0193112
-0.0181217
-0.0168086
-0.0153453
-0.0136887
-0.011775
-0.00953165
-0.00708843
-0.00510686
-0.00377513
-0.0010481
-0.00171073
-0.00271368
-0.00412572
-0.0059607
-0.00805323
-0.0102299
-0.0123592
-0.0143444
-0.0161578
-0.017788
-0.019237
-0.0205154
-0.021634
-0.0226028
-0.0234293
-0.0241187
-0.0246743
-0.0250979
-0.0253908
-0.0255537
-0.025587
-0.0254917
-0.0252688
-0.0249198
-0.0244468
-0.0238529
-0.0231422
-0.0223202
-0.0213931
-0.020367
-0.0192445
-0.0180209
-0.0166794
-0.0151885
-0.0135011
-0.0115499
-0.00937062
-0.00765235
-0.00655751
-0.00236042
-0.00299376
-0.00398575
-0.00538383
-0.00718406
-0.00921654
-0.0113317
-0.0133878
-0.0153028
-0.0170531
-0.0186283
-0.0200315
-0.0212726
-0.0223616
-0.0233072
-0.024116
-0.0247923
-0.0253388
-0.0257574
-0.026049
-0.0262143
-0.0262542
-0.0261695
-0.0259613
-0.0256311
-0.0251809
-0.0246136
-0.0239333
-0.0231456
-0.022258
-0.0212791
-0.0202163
-0.0190722
-0.0178395
-0.0164967
-0.0150074
-0.0133229
-0.0114718
-0.00999456
-0.00907114
-0.00361899
-0.00421628
-0.00518048
-0.00654551
-0.00829015
-0.0102496
-0.0122915
-0.0142707
-0.0161163
-0.0178062
-0.0193305
-0.0206924
-0.0219007
-0.0229639
-0.0238898
-0.0246836
-0.025349
-0.0258883
-0.0263028
-0.0265935
-0.0267611
-0.0268065
-0.0267307
-0.0265349
-0.0262206
-0.0257898
-0.0252455
-0.0245916
-0.023834
-0.0229812
-0.0220435
-0.0210327
-0.0199577
-0.0188193
-0.017604
-0.0162822
-0.0148268
-0.0132806
-0.0120273
-0.0112413
-0.00474303
-0.00529553
-0.00622201
-0.00754752
-0.00923253
-0.0111187
-0.0130869
-0.0149936
-0.016776
-0.018412
-0.0198919
-0.0212184
-0.0223988
-0.0234407
-0.0243502
-0.0251318
-0.0257885
-0.0263219
-0.0267333
-0.0270233
-0.0271928
-0.0272426
-0.0271738
-0.0269878
-0.0266862
-0.0262711
-0.0257455
-0.0251136
-0.0243813
-0.0235577
-0.0226548
-0.0216874
-0.0206697
-0.0196098
-0.018501
-0.0173211
-0.0160601
-0.0147699
-0.0137125
-0.0130324
-0.00566656
-0.00618044
-0.00706264
-0.00834641
-0.00997612
-0.0117992
-0.0137018
-0.0155457
-0.0172744
-0.0188655
-0.0203092
-0.0216072
-0.0227655
-0.0237905
-0.0246874
-0.0254597
-0.0261098
-0.026639
-0.0270482
-0.0273379
-0.0275088
-0.0275618
-0.0274981
-0.027319
-0.0270265
-0.0266229
-0.0261113
-0.025496
-0.0247834
-0.0239827
-0.0231073
-0.0221742
-0.0212016
-0.0202034
-0.0191804
-0.0181188
-0.017017
-0.015919
-0.0150284
-0.0144379
-0.00636106
-0.00682582
-0.00767031
-0.00891876
-0.0105013
-0.012275
-0.0141248
-0.0159187
-0.0176056
-0.0191625
-0.0205791
-0.0218561
-0.0229986
-0.0240118
-0.0249
-0.0256663
-0.0263123
-0.0268391
-0.0272471
-0.0275369
-0.0277088
-0.0277639
-0.0277032
-0.0275282
-0.027241
-0.0268443
-0.0263412
-0.0257365
-0.0250368
-0.0242518
-0.0233956
-0.0224868
-0.0215466
-0.0205939
-0.0196362
-0.0186686
-0.017693
-0.0167444
-0.0159844
-0.0154633
-0.00679651
-0.00721914
-0.00803875
-0.0092584
-0.0108003
-0.0125389
-0.0143495
-0.016107
-0.017765
-0.019299
-0.0206981
-0.0219623
-0.0230955
-0.0241024
-0.0249865
-0.0257504
-0.0263952
-0.0269217
-0.02733
-0.0276204
-0.0277932
-0.0278492
-0.0277894
-0.0276156
-0.0273297
-0.0269348
-0.0264344
-0.0258336
-0.0251393
-0.0243616
-0.0235152
-0.0226199
-0.0216993
-0.020776
-0.019864
-0.0189661
-0.0180872
-0.0172497
-0.0165896
-0.0161218
-0.00695209
-0.00735789
-0.0081696
-0.00937015
-0.0108779
-0.0125899
-0.0143721
-0.0161079
-0.0177495
-0.0192717
-0.0206631
-0.0219227
-0.0230537
-0.0240602
-0.0249452
-0.0257107
-0.0263577
-0.0268864
-0.0272968
-0.0275888
-0.0277626
-0.0278186
-0.0277578
-0.027582
-0.0272933
-0.0268948
-0.0263906
-0.0257863
-0.025089
-0.0243096
-0.0234629
-0.0225692
-0.0216551
-0.0207458
-0.0198603
-0.0190094
-0.018203
-0.0174502
-0.016865
-0.0164272
-0.00686356
-0.00725948
-0.00807019
-0.00926177
-0.0107443
-0.0124323
-0.0141999
-0.0159241
-0.017559
-0.0190788
-0.0204712
-0.0217343
-0.0228704
-0.0238829
-0.0247742
-0.0255461
-0.0261991
-0.0267331
-0.0271478
-0.0274427
-0.0276177
-0.0276731
-0.0276097
-0.0274289
-0.0271331
-0.0267256
-0.0262108
-0.0255945
-0.0248849
-0.0240934
-0.0232355
-0.0223325
-0.0214115
-0.0205004
-0.0196228
-0.0187971
-0.0180407
-0.0173448
-0.0168219
-0.0163927
-0.00657555
-0.0069602
-0.00776906
-0.008957
-0.0104193
-0.0120777
-0.0138367
-0.0155573
-0.017193
-0.0187181
-0.0201196
-0.0213941
-0.0225427
-0.0235678
-0.0244716
-0.0252551
-0.0259186
-0.0264615
-0.0268832
-0.0271829
-0.0273599
-0.0274143
-0.0273466
-0.0271582
-0.0268512
-0.0264292
-0.0258966
-0.0252601
-0.0245283
-0.0237134
-0.0228323
-0.0219074
-0.0209662
-0.0200383
-0.0191514
-0.0183321
-0.0176071
-0.0169406
-0.016478
-0.0160293
-0.00613702
-0.00650813
-0.00730779
-0.00848502
-0.00992854
-0.0115519
-0.0132892
-0.0150092
-0.0166509
-0.0181876
-0.0196051
-0.0208983
-0.0220668
-0.023112
-0.024035
-0.0248363
-0.0255155
-0.0260718
-0.0265038
-0.0268105
-0.0269907
-0.0270441
-0.0269709
-0.0267721
-0.0264499
-0.0260078
-0.0254505
-0.024785
-0.0240208
-0.0231712
-0.0222542
-0.0212936
-0.0203184
-0.0193594
-0.018448
-0.0176207
-0.0169097
-0.0162405
-0.0158338
-0.0153625
-0.00561286
-0.00596399
-0.00673745
-0.00788328
-0.00929345
-0.0108783
-0.0125762
-0.0142872
-0.015934
-0.0174851
-0.0189239
-0.0202427
-0.021439
-0.0225121
-0.0234619
-0.0242879
-0.0249891
-0.0255638
-0.0260103
-0.0263269
-0.0265121
-0.0265649
-0.0264852
-0.0262738
-0.0259326
-0.0254648
-0.0248757
-0.0241724
-0.0233655
-0.0224693
-0.0215035
-0.0204935
-0.0194699
-0.018465
-0.017515
-0.0166663
-0.0159553
-0.0152607
-0.0149104
-0.0144086
-0.00508344
-0.00539859
-0.00611388
-0.0071948
-0.0085419
-0.0100705
-0.0117152
-0.0134001
-0.0150442
-0.0166086
-0.0180721
-0.0194229
-0.0206548
-0.0217643
-0.0227494
-0.0236082
-0.0243384
-0.0249377
-0.0254037
-0.0257339
-0.0259265
-0.0259799
-0.0258933
-0.0256674
-0.0253036
-0.0248051
-0.0241771
-0.0234274
-0.0225672
-0.0216125
-0.0205849
-0.0195116
-0.018425
-0.0173591
-0.0163556
-0.0154693
-0.0147364
-0.0140157
-0.0137425
-0.0131896
-0.00463246
-0.00487805
-0.0054869
-0.00646033
-0.00770782
-0.00914769
-0.010719
-0.0123561
-0.0139838
-0.0155563
-0.0170456
-0.0184338
-0.0197092
-0.0208644
-0.0218944
-0.022795
-0.0235627
-0.0241939
-0.0246854
-0.025034
-0.0252372
-0.0252928
-0.0251997
-0.0249578
-0.0245686
-0.0240347
-0.0233615
-0.0225572
-0.021634
-0.0206092
-0.0195067
-0.0183559
-0.0171917
-0.0160502
-0.0149776
-0.0140362
-0.0132639
-0.0125018
-0.0123464
-0.0116975
-0.0043202
-0.0044427
-0.00489126
-0.00571524
-0.00682488
-0.00813613
-0.00960006
-0.0111625
-0.0127555
-0.0143273
-0.0158414
-0.0172712
-0.018598
-0.0198087
-0.0208941
-0.0218471
-0.0226619
-0.0233335
-0.0238577
-0.0242304
-0.0244484
-0.024509
-0.0244104
-0.0241521
-0.0237352
-0.0231623
-0.0224385
-0.0215724
-0.0205771
-0.0194717
-0.0182822
-0.0170405
-0.0157842
-0.0145519
-0.0133947
-0.0123801
-0.0115474
-0.0107228
-0.0107136
-0.00988688
-0.00413683
-0.00407432
-0.00434586
-0.00499108
-0.00592089
-0.00705918
-0.00837472
-0.00982997
-0.011365
-0.0129233
-0.0144582
-0.0159327
-0.0173186
-0.0185951
-0.0197473
-0.0207641
-0.0216369
-0.0223589
-0.0229241
-0.0233278
-0.023566
-0.0236353
-0.0235336
-0.0232596
-0.0228142
-0.0221998
-0.0214215
-0.0204881
-0.0194137
-0.0182188
-0.0169317
-0.0155868
-0.0142245
-0.0128865
-0.0116293
-0.0105228
-0.00961031
-0.00871513
-0.00880639
-0.00767471
-0.00392593
-0.00372273
-0.00386638
-0.00431211
-0.00501549
-0.00593429
-0.00705985
-0.0083731
-0.00982372
-0.0113521
-0.0129011
-0.0144214
-0.0158729
-0.0172254
-0.0184563
-0.0195492
-0.0204919
-0.0212749
-0.0218908
-0.0223336
-0.0225985
-0.0226817
-0.0225807
-0.0222931
-0.0218201
-0.0211639
-0.0203295
-0.019326
-0.0181682
-0.0168778
-0.0154851
-0.0140265
-0.0125456
-0.0110872
-0.00971361
-0.00849586
-0.00748578
-0.0065114
-0.00659039
-0.00499637
-0.00361153
-0.00341941
-0.00346845
-0.00368853
-0.00412171
-0.00477654
-0.00567238
-0.00680996
-0.00814995
-0.00963067
-0.0111849
-0.0127497
-0.0142717
-0.015709
-0.0170299
-0.0182112
-0.0192359
-0.0200915
-0.0207684
-0.0212594
-0.0215589
-0.0216624
-0.0215669
-0.0212709
-0.0207736
-0.020078
-0.0191894
-0.0181167
-0.0168753
-0.0154876
-0.013985
-0.0124053
-0.0107947
-0.00920133
-0.00769399
-0.00634292
-0.00520846
-0.00411271
-0.00407244
-0.0018735
-0.00334253
-0.00321461
-0.00315561
-0.00312606
-0.00325107
-0.00360082
-0.00423145
-0.0051651
-0.00637261
-0.00778993
-0.00933982
-0.0109458
-0.0125404
-0.0140688
-0.0154889
-0.0167693
-0.0178874
-0.0188266
-0.019575
-0.0201238
-0.0204668
-0.0205991
-0.0205175
-0.0202196
-0.0197037
-0.0189751
-0.0180387
-0.016903
-0.0155831
-0.0141015
-0.0124897
-0.010785
-0.00903575
-0.00729201
-0.00562945
-0.00411404
-0.00281152
-0.00152467
-0.00123756
0.00158322
-0.0031474
-0.0030856
-0.00290865
-0.00262354
-0.00241152
-0.00242136
-0.00275879
-0.0034702
-0.00453305
-0.00587785
-0.0074164
-0.00905929
-0.0107256
-0.0123476
-0.0138722
-0.0152591
-0.0164791
-0.0175112
-0.0183406
-0.0189565
-0.0193519
-0.019522
-0.0194635
-0.0191759
-0.0186514
-0.0179008
-0.0169282
-0.0157415
-0.014355
-0.0127894
-0.0110744
-0.00924462
-0.00734826
-0.00543421
-0.00358238
-0.00184815
-0.000303423
0.00127609
0.00193462
0.00535533
-0.00294904
-0.00297033
-0.00267937
-0.00214896
-0.00158996
-0.00124796
-0.00128512
-0.00177113
-0.00268865
-0.00396115
-0.0054873
-0.00716448
-0.00889955
-0.0106135
-0.0122426
-0.0137381
-0.0150639
-0.0161942
-0.0171109
-0.0178016
-0.0182579
-0.0184745
-0.0184473
-0.0181753
-0.0176657
-0.016911
-0.0159193
-0.0146997
-0.0132649
-0.0116311
-0.00982394
-0.00787088
-0.00581638
-0.00369978
-0.00159834
0.000455269
0.00238218
0.00443139
0.00565126
0.00983218
-0.00268633
-0.00277165
-0.00240526
-0.00164766
-0.000760935
-9.25805e-05
0.00014688
-0.000133629
-0.000919995
-0.00212861
-0.00364659
-0.00535861
-0.00715956
-0.00896038
-0.0106888
-0.0122885
-0.0137176
-0.0149457
-0.0159514
-0.0167208
-0.0172442
-0.0175159
-0.0175332
-0.0172956
-0.0168054
-0.0160619
-0.0150709
-0.0138398
-0.012378
-0.0106947
-0.00880862
-0.00673386
-0.00450379
-0.00213313
0.00031941
0.00287006
0.00544586
0.0083331
0.0106271
0.0163892
-0.00236195
-0.00245459
-0.00201378
-0.00107261
8.66747e-05
0.00100904
0.00146499
0.00134721
0.000665083
-0.000492639
-0.00200438
-0.00374641
-0.00560479
-0.00748207
-0.00929851
-0.0109924
-0.0125168
-0.013837
-0.014929
-0.0157768
-0.0163703
-0.0167027
-0.0167715
-0.0165759
-0.0161174
-0.0153973
-0.0144204
-0.0131927
-0.01172
-0.0100037
-0.00805187
-0.00585729
-0.00343168
-0.000740147
0.00220339
0.00552387
0.00919199
0.0136882
0.0184119
0.0278503
-0.002128
-0.00218111
-0.00158602
-0.000445613
0.000888312
0.00200775
0.00259675
0.00258201
0.00196899
0.000844205
-0.000669631
-0.00244403
-0.00435682
-0.00630269
-0.00819525
-0.00996832
-0.0115728
-0.0129704
-0.0141354
-0.0150509
-0.0157058
-0.0160932
-0.01621
-0.0160557
-0.0156321
-0.0149402
-0.013982
-0.012756
-0.0112734
-0.00953197
-0.00752425
-0.00521779
-0.00259323
0.000465167
0.00402371
0.00842688
0.0137788
0.0212658
0.0309539
0.0473603
-0.00307336
-0.00251942
-0.00143682
3.15843e-05
0.00156991
0.00279868
0.00346586
0.00350198
0.00292459
0.00182322
0.000317473
-0.00146797
-0.00341147
-0.00540424
-0.00735488
-0.00919199
-0.0108618
-0.0123235
-0.0135489
-0.0145203
-0.0152248
-0.0156567
-0.015812
-0.0156906
-0.015293
-0.0146213
-0.0136775
-0.0124626
-0.010976
-0.00920589
-0.00715083
-0.00476949
-0.00199014
0.00135299
0.00552415
0.0111443
0.0188636
0.0311424
0.0488739
0.0753646
-0.00516926
-0.00163023
-3.80678e-06
0.00142463
0.00283357
0.00396021
0.00455452
0.00452082
0.00388507
0.00274266
0.00120882
-0.000601615
-0.00257694
-0.00461194
-0.00661507
-0.0085107
-0.0102388
-0.0117575
-0.0130374
-0.0140574
-0.0148053
-0.0152736
-0.0154602
-0.0153638
-0.0149865
-0.0143283
-0.0133923
-0.0121764
-0.0106787
-0.00890469
-0.00682083
-0.00446937
-0.00155186
0.00181086
0.0065034
0.0129953
0.0239492
0.0419631
0.0694808
0.104961
)
;

boundaryField
{
    movingWall
    {
        type            zeroGradient;
    }
    fixedWalls
    {
        type            zeroGradient;
    }
    frontAndBack
    {
        type            empty;
    }
}


// ************************************************************************* //
