/*--------------------------------*- C++ -*----------------------------------*\
  =========                 |
  \\      /  F ield         | OpenFOAM: The Open Source CFD Toolbox
   \\    /   O peration     | Website:  https://openfoam.org
    \\  /    A nd           | Version:  12
     \\/     M anipulation  |
\*---------------------------------------------------------------------------*/
FoamFile
{
    format      ascii;
    class       surfaceScalarField;
    location    "9.5";
    object      phi;
}
// * * * * * * * * * * * * * * * * * * * * * * * * * * * * * * * * * * * * * //

dimensions      [0 3 -1 0 0 0 0];

internalField   nonuniform List<scalar> 
3120
(
9.98056e-08
-9.98062e-08
2.43176e-07
-1.4337e-07
3.46999e-07
-1.03823e-07
3.80404e-07
-3.34054e-08
3.67521e-07
1.28836e-08
3.45658e-07
2.18623e-08
3.37461e-07
8.19777e-09
3.32281e-07
5.17939e-09
3.08354e-07
2.39268e-08
2.48081e-07
6.02736e-08
1.28476e-07
1.19605e-07
-9.86247e-08
2.271e-07
-4.54295e-07
3.55671e-07
-9.71359e-07
5.17064e-07
-1.57724e-06
6.05877e-07
-2.1651e-06
5.87862e-07
-2.69453e-06
5.29436e-07
-3.14654e-06
4.52003e-07
-3.52053e-06
3.73998e-07
-3.81695e-06
2.96415e-07
-4.03836e-06
2.21414e-07
-4.18573e-06
1.47364e-07
-4.26125e-06
7.55269e-08
-4.26029e-06
-9.61849e-10
-4.18355e-06
-7.6745e-08
-4.03161e-06
-1.51942e-07
-3.7901e-06
-2.41501e-07
-3.46081e-06
-3.29298e-07
-3.03572e-06
-4.25084e-07
-2.5165e-06
-5.19219e-07
-1.90467e-06
-6.11829e-07
-1.22578e-06
-6.78896e-07
-5.32147e-07
-6.93631e-07
9.97304e-08
-6.31877e-07
5.96668e-07
-4.96938e-07
8.01723e-07
-2.05055e-07
6.86787e-07
1.14936e-07
4.46396e-07
2.40391e-07
1.88725e-07
2.57671e-07
1.88725e-07
1.78307e-07
-2.78113e-07
3.68938e-07
-3.34001e-07
4.84324e-07
-2.1921e-07
5.15039e-07
-6.412e-08
4.78512e-07
4.94105e-08
4.00444e-07
9.99305e-08
2.91183e-07
1.17459e-07
1.24664e-07
1.71698e-07
-1.44097e-07
2.92688e-07
-5.61231e-07
4.77408e-07
-1.15176e-06
7.10137e-07
-1.8734e-06
9.48741e-07
-2.62656e-06
1.10883e-06
-3.26968e-06
1.16019e-06
-3.77332e-06
1.10952e-06
-4.20648e-06
1.02102e-06
-4.57302e-06
8.9597e-07
-4.87821e-06
7.57197e-07
-5.11909e-06
6.14882e-07
-5.29834e-06
4.75656e-07
-5.41571e-06
3.3879e-07
-5.47615e-06
2.07801e-07
-5.47582e-06
7.51975e-08
-5.4186e-06
-5.8185e-08
-5.30001e-06
-1.95329e-07
-5.11277e-06
-3.39189e-07
-4.85815e-06
-4.9612e-07
-4.52297e-06
-6.64479e-07
-4.0998e-06
-8.48253e-07
-3.5864e-06
-1.03261e-06
-2.98832e-06
-1.20991e-06
-2.31292e-06
-1.35429e-06
-1.58877e-06
-1.41778e-06
-8.57286e-07
-1.36336e-06
-2.30375e-07
-1.12385e-06
2.34045e-07
-6.69475e-07
3.88098e-07
-3.91174e-08
3.2147e-07
3.07019e-07
1.51182e-07
4.27959e-07
3.39907e-07
2.13108e-07
-4.91221e-07
3.59478e-07
-4.80372e-07
4.08254e-07
-2.67986e-07
3.77203e-07
-3.30686e-08
2.77216e-07
1.49397e-07
1.00411e-07
2.76735e-07
-1.93027e-07
4.10897e-07
-6.37563e-07
6.16234e-07
-1.24601e-06
9.01135e-07
-1.97649e-06
1.20789e-06
-2.72259e-06
1.45623e-06
-3.37142e-06
1.59757e-06
-3.90276e-06
1.64017e-06
-4.32892e-06
1.58635e-06
-4.68097e-06
1.46157e-06
-4.96456e-06
1.30461e-06
-5.19588e-06
1.12729e-06
-5.38206e-06
9.43377e-07
-5.52649e-06
7.59312e-07
-5.63068e-06
5.79844e-07
-5.69755e-06
4.05658e-07
-5.72328e-06
2.33534e-07
-5.70539e-06
5.73108e-08
-5.64762e-06
-1.15959e-07
-5.54747e-06
-2.95476e-07
-5.40051e-06
-4.86149e-07
-5.20476e-06
-6.91878e-07
-4.95452e-06
-9.14713e-07
-4.64446e-06
-1.15832e-06
-4.25928e-06
-1.41779e-06
-3.78906e-06
-1.68013e-06
-3.22481e-06
-1.91854e-06
-2.57303e-06
-2.06956e-06
-1.86206e-06
-2.07434e-06
-1.13875e-06
-1.84715e-06
-4.90815e-07
-1.31741e-06
-7.63317e-08
-4.53601e-07
3.42317e-08
1.96456e-07
2.34173e-08
4.38773e-07
3.63325e-07
1.74866e-07
-6.66086e-07
2.30066e-07
-5.35572e-07
1.82194e-07
-2.20114e-07
5.31424e-08
9.59825e-08
-1.6657e-07
3.6911e-07
-5.14414e-07
6.24579e-07
-1.01862e-06
9.15108e-07
-1.6639e-06
1.26151e-06
-2.38029e-06
1.61753e-06
-3.07064e-06
1.89824e-06
-3.65556e-06
2.04116e-06
-4.11804e-06
2.06004e-06
-4.47256e-06
1.99469e-06
-4.74759e-06
1.86138e-06
-4.97133e-06
1.68531e-06
-5.15013e-06
1.48341e-06
-5.29574e-06
1.2729e-06
-5.41523e-06
1.06287e-06
-5.51125e-06
8.55326e-07
-5.57894e-06
6.47535e-07
-5.61862e-06
4.45338e-07
-5.62758e-06
2.425e-07
-5.60634e-06
3.60633e-08
-5.55735e-06
-1.64944e-07
-5.47793e-06
-3.74897e-07
-5.36557e-06
-5.98507e-07
-5.21852e-06
-8.38924e-07
-5.03335e-06
-1.09988e-06
-4.80912e-06
-1.38256e-06
-4.54089e-06
-1.68601e-06
-4.22222e-06
-1.9988e-06
-3.83571e-06
-2.30505e-06
-3.33831e-06
-2.56696e-06
-2.71576e-06
-2.69689e-06
-1.98026e-06
-2.58265e-06
-1.18885e-06
-2.10882e-06
-4.61257e-07
-1.18119e-06
-1.37011e-07
-1.2779e-07
-3.01095e-08
3.31871e-07
3.33215e-07
7.92466e-08
-7.45333e-07
1.68877e-08
-4.73213e-07
-1.40504e-07
-6.27217e-08
-3.85255e-07
3.40733e-07
-7.42657e-07
7.26511e-07
-1.23517e-06
1.11709e-06
-1.85133e-06
1.53127e-06
-2.52627e-06
1.93645e-06
-3.164e-06
2.25525e-06
-3.68777e-06
2.42202e-06
-4.09002e-06
2.44341e-06
-4.39997e-06
2.37e-06
-4.63409e-06
2.22881e-06
-4.81462e-06
2.0419e-06
-4.95877e-06
1.82946e-06
-5.07712e-06
1.60176e-06
-5.17169e-06
1.36747e-06
-5.2395e-06
1.13067e-06
-5.28133e-06
8.97157e-07
-5.30264e-06
6.68842e-07
-5.30504e-06
4.47742e-07
-5.29128e-06
2.28741e-07
-5.26247e-06
7.25647e-09
-5.21588e-06
-2.11538e-07
-5.15025e-06
-4.40531e-07
-5.06615e-06
-6.82602e-07
-4.96311e-06
-9.41966e-07
-4.83983e-06
-1.22317e-06
-4.6931e-06
-1.52928e-06
-4.51823e-06
-1.86089e-06
-4.30562e-06
-2.21141e-06
-4.04735e-06
-2.56333e-06
-3.72408e-06
-2.89023e-06
-3.28797e-06
-3.13299e-06
-2.67813e-06
-3.19249e-06
-1.88329e-06
-2.90366e-06
-9.34791e-07
-2.1297e-06
-2.23713e-07
-8.38868e-07
-1.61396e-08
1.24297e-07
3.17075e-07
-5.80653e-08
-6.87268e-07
-2.3686e-07
-2.94418e-07
-4.98072e-07
1.9849e-07
-8.5288e-07
6.95541e-07
-1.31834e-06
1.19197e-06
-1.88646e-06
1.68521e-06
-2.50642e-06
2.15122e-06
-3.09632e-06
2.52636e-06
-3.58186e-06
2.74079e-06
-3.94436e-06
2.78452e-06
-4.21655e-06
2.7156e-06
-4.42041e-06
2.57385e-06
-4.57113e-06
2.37953e-06
-4.68327e-06
2.15404e-06
-4.7631e-06
1.90929e-06
-4.81701e-06
1.65567e-06
-4.85003e-06
1.40049e-06
-4.86833e-06
1.14898e-06
-4.87579e-06
9.0461e-07
-4.8734e-06
6.66459e-07
-4.8593e-06
4.33639e-07
-4.83388e-06
2.03323e-07
-4.7996e-06
-2.7025e-08
-4.75182e-06
-2.59325e-07
-4.69324e-06
-4.99106e-07
-4.62504e-06
-7.50806e-07
-4.54813e-06
-1.01887e-06
-4.46335e-06
-1.30794e-06
-4.37051e-06
-1.62212e-06
-4.2676e-06
-1.96381e-06
-4.14778e-06
-2.33123e-06
-3.9964e-06
-2.71471e-06
-3.79615e-06
-3.09048e-06
-3.51694e-06
-3.4122e-06
-3.09993e-06
-3.60951e-06
-2.4536e-06
-3.54999e-06
-1.53204e-06
-3.05125e-06
-4.96963e-07
-1.87394e-06
-3.31862e-08
-3.39479e-07
2.83889e-07
-1.86858e-07
-5.0041e-07
-4.82228e-07
9.52119e-10
-8.35253e-07
5.51515e-07
-1.27595e-06
1.13624e-06
-1.79889e-06
1.71491e-06
-2.36695e-06
2.25327e-06
-2.91616e-06
2.70043e-06
-3.37654e-06
2.98673e-06
-3.71512e-06
3.07937e-06
-3.95898e-06
3.02837e-06
-4.13616e-06
2.89278e-06
-4.25931e-06
2.69701e-06
-4.34264e-06
2.46285e-06
-4.39556e-06
2.20697e-06
-4.426e-06
1.93973e-06
-4.44107e-06
1.67074e-06
-4.44575e-06
1.40517e-06
-4.443e-06
1.14622e-06
-4.43311e-06
8.94726e-07
-4.41619e-06
6.49535e-07
-4.39179e-06
4.09247e-07
-4.3599e-06
1.71428e-07
-4.32082e-06
-6.61015e-08
-4.27367e-06
-3.06474e-07
-4.21942e-06
-5.53354e-07
-4.15963e-06
-8.10599e-07
-4.09607e-06
-1.08243e-06
-4.03074e-06
-1.37327e-06
-3.96532e-06
-1.68754e-06
-3.90024e-06
-2.02889e-06
-3.83276e-06
-2.39871e-06
-3.75445e-06
-2.79301e-06
-3.64772e-06
-3.19721e-06
-3.48059e-06
-3.57932e-06
-3.20987e-06
-3.88023e-06
-2.75948e-06
-4.00038e-06
-2.03776e-06
-3.77298e-06
-9.58674e-07
-2.95303e-06
-1.16882e-07
-1.18127e-06
1.67008e-07
-3.02189e-07
-1.98221e-07
-6.75629e-07
3.74393e-07
-1.10831e-06
9.84198e-07
-1.59785e-06
1.62578e-06
-2.12462e-06
2.24168e-06
-2.64288e-06
2.77154e-06
-3.09175e-06
3.1493e-06
-3.42501e-06
3.32e-06
-3.65442e-06
3.30878e-06
-3.815e-06
3.18896e-06
-3.92216e-06
2.99993e-06
-3.98823e-06
2.76308e-06
-4.02525e-06
2.49987e-06
-4.04161e-06
2.22333e-06
-4.04497e-06
1.94309e-06
-4.04038e-06
1.66614e-06
-4.0307e-06
1.3955e-06
-4.017e-06
1.13253e-06
-3.99906e-06
8.76784e-07
-3.97651e-06
6.2699e-07
-3.94877e-06
3.81505e-07
-3.9154e-06
1.38056e-07
-3.87601e-06
-1.05491e-07
-3.83057e-06
-3.5192e-07
-3.77973e-06
-6.04193e-07
-3.7249e-06
-8.65425e-07
-3.66818e-06
-1.13915e-06
-3.61219e-06
-1.42927e-06
-3.55964e-06
-1.74008e-06
-3.5125e-06
-2.07604e-06
-3.47048e-06
-2.44073e-06
-3.42882e-06
-2.83468e-06
-3.37473e-06
-3.2513e-06
-3.28291e-06
-3.67114e-06
-3.11177e-06
-4.05137e-06
-2.8032e-06
-4.30894e-06
-2.27752e-06
-4.29867e-06
-1.43452e-06
-3.79602e-06
-3.37654e-07
-2.27814e-06
-1.70647e-07
-3.7816e-07
1.79939e-07
-8.20314e-07
8.16547e-07
-1.29227e-06
1.45615e-06
-1.7899e-06
2.12341e-06
-2.28666e-06
2.73844e-06
-2.73628e-06
3.22116e-06
-3.08073e-06
3.49374e-06
-3.31397e-06
3.55324e-06
-3.46983e-06
3.46465e-06
-3.57163e-06
3.29075e-06
-3.63104e-06
3.05934e-06
-3.66061e-06
2.79266e-06
-3.67027e-06
2.50953e-06
-3.66755e-06
2.22061e-06
-3.65829e-06
1.93383e-06
-3.64554e-06
1.65339e-06
-3.63071e-06
1.38066e-06
-3.61393e-06
1.11574e-06
-3.59465e-06
8.57504e-07
-3.57208e-06
6.04425e-07
-3.54533e-06
3.54747e-07
-3.51363e-06
1.06357e-07
-3.47634e-06
-1.42781e-07
-3.43338e-06
-3.94874e-07
-3.38524e-06
-6.52334e-07
-3.33309e-06
-9.17573e-07
-3.27893e-06
-1.19332e-06
-3.22551e-06
-1.48268e-06
-3.17616e-06
-1.78943e-06
-3.13409e-06
-2.11811e-06
-3.10113e-06
-2.47369e-06
-3.07544e-06
-2.86036e-06
-3.04829e-06
-3.27846e-06
-3.00016e-06
-3.71927e-06
-2.89628e-06
-4.15525e-06
-2.68647e-06
-4.51876e-06
-2.31892e-06
-4.66622e-06
-1.70979e-06
-4.40514e-06
-6.36153e-07
-3.35178e-06
-8.06799e-07
-4.22883e-07
6.02822e-07
-8.99271e-07
1.29294e-06
-1.38237e-06
1.93925e-06
-1.86305e-06
2.60409e-06
-2.31458e-06
3.18997e-06
-2.68237e-06
3.58896e-06
-2.93612e-06
3.74749e-06
-3.10317e-06
3.72029e-06
-3.20965e-06
3.57112e-06
-3.27207e-06
3.35317e-06
-3.30201e-06
3.08929e-06
-3.31102e-06
2.80167e-06
-3.30733e-06
2.50585e-06
-3.2971e-06
2.21038e-06
-3.28422e-06
1.92095e-06
-3.27039e-06
1.63956e-06
-3.25608e-06
1.36635e-06
-3.24085e-06
1.10052e-06
-3.22386e-06
8.40509e-07
-3.20405e-06
5.84624e-07
-3.1804e-06
3.31088e-07
-3.15202e-06
7.79814e-08
-3.11822e-06
-1.76585e-07
-3.07874e-06
-4.34346e-07
-3.03384e-06
-6.97239e-07
-2.98432e-06
-9.67093e-07
-2.93174e-06
-1.24589e-06
-2.87848e-06
-1.53594e-06
-2.82774e-06
-1.84018e-06
-2.78316e-06
-2.16268e-06
-2.74798e-06
-2.50887e-06
-2.72304e-06
-2.88531e-06
-2.70377e-06
-3.29772e-06
-2.67659e-06
-3.74645e-06
-2.61373e-06
-4.21812e-06
-2.46681e-06
-4.66567e-06
-2.18703e-06
-4.946e-06
-1.70815e-06
-4.88402e-06
-9.09906e-07
-4.15003e-06
-1.71671e-06
-4.40017e-07
1.04284e-06
-9.20117e-07
1.77304e-06
-1.39022e-06
2.40936e-06
-1.83716e-06
3.05102e-06
-2.23134e-06
3.58416e-06
-2.51835e-06
3.87597e-06
-2.71132e-06
3.94046e-06
-2.83435e-06
3.84331e-06
-2.90794e-06
3.64471e-06
-2.94611e-06
3.39134e-06
-2.96e-06
3.10318e-06
-2.95965e-06
2.80132e-06
-2.95173e-06
2.49793e-06
-2.94085e-06
2.1995e-06
-2.92941e-06
1.90951e-06
-2.9182e-06
1.62834e-06
-2.90709e-06
1.35524e-06
-2.89531e-06
1.08874e-06
-2.88187e-06
8.27066e-07
-2.86569e-06
5.6844e-07
-2.84574e-06
3.11136e-07
-2.8212e-06
5.34491e-08
-2.79145e-06
-2.06335e-07
-2.75612e-06
-4.69679e-07
-2.71523e-06
-7.38126e-07
-2.66923e-06
-1.0131e-06
-2.61912e-06
-1.296e-06
-2.56665e-06
-1.58841e-06
-2.51442e-06
-1.89242e-06
-2.46581e-06
-2.21129e-06
-2.42451e-06
-2.55017e-06
-2.3931e-06
-2.91672e-06
-2.37046e-06
-3.32036e-06
-2.34829e-06
-3.76862e-06
-2.30637e-06
-4.26004e-06
-2.20304e-06
-4.76899e-06
-1.97155e-06
-5.1775e-06
-1.58306e-06
-5.27251e-06
-9.64042e-07
-4.76905e-06
-2.68075e-06
-4.29111e-07
1.47195e-06
-8.91456e-07
2.23538e-06
-1.33151e-06
2.84941e-06
-1.73581e-06
3.45532e-06
-2.06506e-06
3.91342e-06
-2.29149e-06
4.10239e-06
-2.4433e-06
4.09227e-06
-2.53539e-06
3.9354e-06
-2.58811e-06
3.69743e-06
-2.61271e-06
3.41594e-06
-2.61956e-06
3.11002e-06
-2.61688e-06
2.79864e-06
-2.60988e-06
2.49093e-06
-2.60183e-06
2.19144e-06
-2.59406e-06
1.90175e-06
-2.5868e-06
1.62108e-06
-2.57954e-06
1.34799e-06
-2.57142e-06
1.08062e-06
-2.56147e-06
8.17111e-07
-2.54872e-06
5.55692e-07
-2.53232e-06
2.94736e-07
-2.51158e-06
3.27045e-08
-2.48597e-06
-2.31941e-07
-2.4551e-06
-5.00546e-07
-2.41884e-06
-7.74391e-07
-2.37728e-06
-1.05465e-06
-2.33093e-06
-1.34236e-06
-2.28081e-06
-1.63852e-06
-2.22873e-06
-1.9445e-06
-2.1774e-06
-2.26262e-06
-2.13032e-06
-2.59725e-06
-2.09093e-06
-2.9561e-06
-2.06062e-06
-3.35067e-06
-2.03523e-06
-3.79402e-06
-2.00117e-06
-4.2941e-06
-1.92794e-06
-4.84223e-06
-1.73869e-06
-5.36675e-06
-1.41794e-06
-5.59325e-06
-8.63797e-07
-5.32319e-06
-3.54454e-06
-3.97606e-07
1.86956e-06
-8.265e-07
2.66427e-06
-1.22666e-06
3.24957e-06
-1.58207e-06
3.81073e-06
-1.84788e-06
4.17922e-06
-2.0322e-06
4.28671e-06
-2.15245e-06
4.21253e-06
-2.22464e-06
4.00758e-06
-2.26484e-06
3.73764e-06
-2.28294e-06
3.43404e-06
-2.28813e-06
3.11521e-06
-2.28691e-06
2.79742e-06
-2.28319e-06
2.48722e-06
-2.27918e-06
2.18743e-06
-2.27554e-06
1.8981e-06
-2.27213e-06
1.61767e-06
-2.26832e-06
1.34418e-06
-2.26331e-06
1.07561e-06
-2.25628e-06
8.10074e-07
-2.24646e-06
5.45881e-07
-2.23324e-06
2.81508e-07
-2.21606e-06
1.55263e-08
-2.19453e-06
-2.53468e-07
-2.16829e-06
-5.26788e-07
-2.13708e-06
-8.05602e-07
-2.10077e-06
-1.09097e-06
-2.05941e-06
-1.38371e-06
-2.01344e-06
-1.6845e-06
-1.96383e-06
-1.9941e-06
-1.91245e-06
-2.314e-06
-1.86214e-06
-2.64756e-06
-1.8165e-06
-3.00175e-06
-1.77835e-06
-3.38882e-06
-1.74652e-06
-3.82585e-06
-1.71186e-06
-4.32875e-06
-1.6521e-06
-4.90199e-06
-1.50929e-06
-5.50956e-06
-1.2285e-06
-5.87404e-06
-7.58016e-07
-5.79367e-06
-4.30256e-06
-3.52178e-07
2.22173e-06
-7.3748e-07
3.04958e-06
-1.09063e-06
3.60271e-06
-1.39184e-06
4.11194e-06
-1.60503e-06
4.39242e-06
-1.75723e-06
4.43891e-06
-1.85478e-06
4.31008e-06
-1.91363e-06
4.06643e-06
-1.94664e-06
3.77065e-06
-1.96241e-06
3.4498e-06
-1.96871e-06
3.12151e-06
-1.97049e-06
2.7992e-06
-1.97064e-06
2.48737e-06
-1.97057e-06
2.18736e-06
-1.97053e-06
1.89807e-06
-1.97025e-06
1.61738e-06
-1.96912e-06
1.34306e-06
-1.9665e-06
1.07299e-06
-1.96178e-06
8.05351e-07
-1.95443e-06
5.38538e-07
-1.94404e-06
2.71116e-07
-1.93022e-06
1.70661e-09
-1.91269e-06
-2.70995e-07
-1.89114e-06
-5.48343e-07
-1.86525e-06
-8.31494e-07
-1.83472e-06
-1.1215e-06
-1.7993e-06
-1.41913e-06
-1.75892e-06
-1.72488e-06
-1.7139e-06
-2.03912e-06
-1.66529e-06
-2.36262e-06
-1.61517e-06
-2.69768e-06
-1.56677e-06
-3.05015e-06
-1.52364e-06
-3.43195e-06
-1.48705e-06
-3.86243e-06
-1.45173e-06
-4.36407e-06
-1.40136e-06
-4.95236e-06
-1.29629e-06
-5.61462e-06
-1.04466e-06
-6.12567e-06
-6.45237e-07
-6.1931e-06
-4.9478e-06
-2.99221e-07
2.52095e-06
-6.3215e-07
3.38251e-06
-9.34175e-07
3.90474e-06
-1.18091e-06
4.35868e-06
-1.355e-06
4.56651e-06
-1.48037e-06
4.56428e-06
-1.5598e-06
4.38951e-06
-1.60905e-06
4.11568e-06
-1.63783e-06
3.79943e-06
-1.65332e-06
3.46529e-06
-1.66171e-06
3.12991e-06
-1.66667e-06
2.80416e-06
-1.67027e-06
2.49097e-06
-1.67338e-06
2.19047e-06
-1.67607e-06
1.90076e-06
-1.67804e-06
1.61935e-06
-1.67882e-06
1.34384e-06
-1.67797e-06
1.07214e-06
-1.6751e-06
8.02481e-07
-1.6699e-06
5.33337e-07
-1.66212e-06
2.63331e-07
-1.65154e-06
-8.87142e-09
-1.63794e-06
-2.84592e-07
-1.6211e-06
-5.65189e-07
-1.60068e-06
-8.51912e-07
-1.57629e-06
-1.14588e-06
-1.54748e-06
-1.44794e-06
-1.51381e-06
-1.75855e-06
-1.47508e-06
-2.07785e-06
-1.43166e-06
-2.40603e-06
-1.38491e-06
-2.74443e-06
-1.3375e-06
-3.09756e-06
-1.29312e-06
-3.47633e-06
-1.25452e-06
-3.90104e-06
-1.21887e-06
-4.39972e-06
-1.17425e-06
-4.99698e-06
-1.0944e-06
-5.69448e-06
-8.87408e-07
-6.33266e-06
-5.54491e-07
-6.52602e-06
-5.50229e-06
-2.39015e-07
2.75997e-06
-5.17173e-07
3.66066e-06
-7.68451e-07
4.15602e-06
-9.65115e-07
4.55534e-06
-1.10589e-06
4.70729e-06
-1.20661e-06
4.66499e-06
-1.27196e-06
4.45486e-06
-1.31398e-06
4.15771e-06
-1.34e-06
3.82545e-06
-1.35586e-06
3.48114e-06
-1.36626e-06
3.14031e-06
-1.37382e-06
2.81172e-06
-1.38e-06
2.49715e-06
-1.38533e-06
2.1958e-06
-1.38982e-06
1.90525e-06
-1.39324e-06
1.62277e-06
-1.39532e-06
1.34592e-06
-1.3958e-06
1.07262e-06
-1.39448e-06
8.01166e-07
-1.39124e-06
5.3009e-07
-1.38595e-06
2.58043e-07
-1.37852e-06
-1.62987e-08
-1.36883e-06
-2.94285e-07
-1.35669e-06
-5.77325e-07
-1.34182e-06
-8.66782e-07
-1.32379e-06
-1.16391e-06
-1.30203e-06
-1.4697e-06
-1.27587e-06
-1.78471e-06
-1.24475e-06
-2.10898e-06
-1.20848e-06
-2.4423e-06
-1.1678e-06
-2.7851e-06
-1.12484e-06
-3.14053e-06
-1.08322e-06
-3.51795e-06
-1.04676e-06
-3.9375e-06
-1.01517e-06
-4.43131e-06
-9.80015e-07
-5.03214e-06
-9.2144e-07
-5.75305e-06
-7.54056e-07
-6.50004e-06
-4.65247e-07
-6.81482e-06
-5.96754e-06
-1.7951e-07
2.93948e-06
-4.0006e-07
3.88121e-06
-5.99982e-07
4.35594e-06
-7.5064e-07
4.706e-06
-8.60832e-07
4.81748e-06
-9.39957e-07
4.74412e-06
-9.93319e-07
4.50822e-06
-1.02927e-06
4.19365e-06
-1.05303e-06
3.84921e-06
-1.0691e-06
3.49721e-06
-1.08086e-06
3.15208e-06
-1.09013e-06
2.82098e-06
-1.0979e-06
2.50492e-06
-1.1045e-06
2.20241e-06
-1.10998e-06
1.91072e-06
-1.11423e-06
1.62702e-06
-1.11714e-06
1.34883e-06
-1.11865e-06
1.07413e-06
-1.11871e-06
8.01228e-07
-1.11732e-06
5.28703e-07
-1.11449e-06
2.55207e-07
-1.11019e-06
-2.05965e-08
-1.10438e-06
-3.00093e-07
-1.09695e-06
-5.84757e-07
-1.08765e-06
-8.76076e-07
-1.0761e-06
-1.17547e-06
-1.06168e-06
-1.48412e-06
-1.04362e-06
-1.80277e-06
-1.02109e-06
-2.13151e-06
-9.93526e-07
-2.46986e-06
-9.611e-07
-2.81753e-06
-9.25329e-07
-3.1763e-06
-8.89493e-07
-3.55378e-06
-8.58023e-07
-3.96897e-06
-8.33056e-07
-4.45628e-06
-8.08347e-07
-5.05685e-06
-7.64578e-07
-5.79682e-06
-6.45632e-07
-6.61899e-06
-4.05353e-07
-7.0551e-06
-6.37289e-06
-1.15251e-07
3.05473e-06
-2.8145e-07
4.04741e-06
-4.3116e-07
4.50565e-06
-5.40333e-07
4.81517e-06
-6.2257e-07
4.89971e-06
-6.82022e-07
4.80357e-06
-7.2428e-07
4.55048e-06
-7.54456e-07
4.22383e-06
-7.75828e-07
3.87058e-06
-7.91538e-07
3.51292e-06
-8.03831e-07
3.16437e-06
-8.13856e-07
2.83101e-06
-8.22268e-07
2.51333e-06
-8.29326e-07
2.20947e-06
-8.35124e-07
1.91652e-06
-8.39706e-07
1.6316e-06
-8.43123e-07
1.35225e-06
-8.45452e-07
1.07645e-06
-8.46783e-07
8.02559e-07
-8.47212e-07
5.29132e-07
-8.46819e-07
2.54814e-07
-8.4566e-07
-2.17555e-08
-8.43746e-07
-3.02007e-07
-8.41023e-07
-5.8748e-07
-8.3732e-07
-8.7978e-07
-8.32299e-07
-1.18049e-06
-8.25403e-07
-1.49102e-06
-8.15832e-07
-1.81234e-06
-8.02634e-07
-2.14471e-06
-7.84972e-07
-2.48753e-06
-7.62603e-07
-2.8399e-06
-7.36525e-07
-3.20238e-06
-7.09584e-07
-3.58073e-06
-6.86398e-07
-3.99216e-06
-6.70791e-07
-4.47188e-06
-6.58717e-07
-5.06892e-06
-6.31689e-07
-5.82385e-06
-5.47932e-07
-6.70274e-06
-3.47928e-07
-7.25511e-06
-6.72082e-06
-5.80827e-08
3.11281e-06
-1.65796e-07
4.15513e-06
-2.64994e-07
4.60485e-06
-3.36125e-07
4.8863e-06
-3.91849e-07
4.95544e-06
-4.32621e-07
4.84434e-06
-4.64118e-07
4.58198e-06
-4.88352e-07
4.24806e-06
-5.06856e-07
3.88909e-06
-5.21466e-07
3.52753e-06
-5.33416e-07
3.17632e-06
-5.43318e-07
2.84091e-06
-5.51574e-07
2.52159e-06
-5.58409e-07
2.2163e-06
-5.64004e-07
1.92211e-06
-5.68535e-07
1.63613e-06
-5.72197e-07
1.35591e-06
-5.75189e-07
1.07945e-06
-5.77703e-07
8.05074e-07
-5.79916e-07
5.31344e-07
-5.8197e-07
2.56868e-07
-5.8397e-07
-1.97549e-08
-5.85977e-07
-3e-07
-5.87991e-07
-5.85466e-07
-5.89909e-07
-8.77862e-07
-5.91475e-07
-1.17892e-06
-5.92219e-07
-1.49027e-06
-5.91401e-07
-1.81316e-06
-5.88053e-07
-2.14805e-06
-5.8118e-07
-2.4944e-06
-5.70216e-07
-2.85086e-06
-5.55694e-07
-3.2169e-06
-5.39992e-07
-3.59643e-06
-5.2762e-07
-4.00453e-06
-5.23335e-07
-4.47617e-06
-5.25226e-07
-5.06703e-06
-5.18404e-07
-5.83067e-06
-4.67655e-07
-6.75349e-06
-3.06313e-07
-7.41645e-06
-7.02713e-06
5.27313e-09
3.10754e-06
-4.90229e-08
4.20942e-06
-1.02348e-07
4.65817e-06
-1.39034e-07
4.92299e-06
-1.6843e-07
4.98483e-06
-1.9125e-07
4.86716e-06
-2.11628e-07
4.60236e-06
-2.29347e-07
4.26578e-06
-2.44341e-07
3.90408e-06
-2.57089e-07
3.54028e-06
-2.67907e-07
3.18714e-06
-2.76939e-07
2.84994e-06
-2.84387e-07
2.52904e-06
-2.9046e-07
2.22238e-06
-2.95425e-07
1.92708e-06
-2.99586e-07
1.6403e-06
-3.03262e-07
1.35959e-06
-3.06763e-07
1.08295e-06
-3.10369e-07
8.0868e-07
-3.14319e-07
5.35294e-07
-3.1881e-07
2.61359e-07
-3.2399e-07
-1.45752e-08
-3.29957e-07
-2.94033e-07
-3.36757e-07
-5.78667e-07
-3.44346e-07
-8.70272e-07
-3.52558e-07
-1.17071e-06
-3.61039e-07
-1.48179e-06
-3.69173e-07
-1.80502e-06
-3.7606e-07
-2.14117e-06
-3.80665e-07
-2.48979e-06
-3.82207e-07
-2.84932e-06
-3.80826e-07
-3.21828e-06
-3.7841e-07
-3.59884e-06
-3.79153e-07
-4.00379e-06
-3.88261e-07
-4.46706e-06
-4.05809e-07
-5.04948e-06
-4.19087e-07
-5.81739e-06
-3.95958e-07
-6.77662e-06
-2.6715e-07
-7.54526e-06
-7.29428e-06
6.43937e-08
3.04315e-06
6.52096e-08
4.20861e-06
5.52974e-08
4.66808e-06
5.13443e-08
4.92694e-06
4.85294e-08
4.98765e-06
4.30028e-08
4.87269e-06
3.45391e-08
4.61082e-06
2.40872e-08
4.27623e-06
1.34001e-08
3.91477e-06
3.33412e-09
3.55034e-06
-5.61565e-09
3.19609e-06
-1.31636e-08
2.85749e-06
-1.92748e-08
2.53515e-06
-2.41485e-08
2.22725e-06
-2.81329e-08
1.93106e-06
-3.16467e-08
1.64381e-06
-3.51228e-08
1.36307e-06
-3.89688e-08
1.08679e-06
-4.35447e-08
8.13256e-07
-4.91542e-08
5.40904e-07
-5.60434e-08
2.68249e-07
-6.44032e-08
-6.21527e-09
-7.43687e-08
-2.84067e-07
-8.60182e-08
-5.67017e-07
-9.93605e-08
-8.5693e-07
-1.14311e-07
-1.15576e-06
-1.3063e-07
-1.46547e-06
-1.47856e-07
-1.7878e-06
-1.65248e-07
-2.12377e-06
-1.81856e-07
-2.47319e-06
-1.96776e-07
-2.8344e-06
-2.09759e-07
-3.20529e-06
-2.22258e-07
-3.58634e-06
-2.38014e-07
-3.98803e-06
-2.62387e-07
-4.44269e-06
-2.97188e-07
-5.01468e-06
-3.3161e-07
-5.78297e-06
-3.36468e-07
-6.77177e-06
-2.37523e-07
-7.6442e-06
-7.5318e-06
1.23951e-07
2.9192e-06
1.7773e-07
4.15483e-06
2.10527e-07
4.63529e-06
2.40407e-07
4.89706e-06
2.64916e-07
4.96314e-06
2.76765e-07
4.86084e-06
2.78128e-07
4.60946e-06
2.74596e-07
4.27977e-06
2.68463e-07
3.9209e-06
2.61511e-07
3.5573e-06
2.54941e-07
3.20266e-06
2.49422e-07
2.86301e-06
2.45108e-07
2.53946e-06
2.41813e-07
2.23055e-06
2.39128e-07
1.93375e-06
2.36536e-07
1.6464e-06
2.335e-07
1.3661e-06
2.29515e-07
1.09078e-06
2.24142e-07
8.18629e-07
2.17009e-07
5.48037e-07
2.07816e-07
2.77441e-07
1.96329e-07
5.27225e-09
1.82376e-07
-2.70114e-07
1.65838e-07
-5.50479e-07
1.46651e-07
-8.37743e-07
1.24832e-07
-1.13394e-06
1.00521e-07
-1.44116e-06
7.40253e-08
-1.7613e-06
4.59025e-08
-2.09565e-06
1.69944e-08
-2.44428e-06
-1.19083e-08
-2.8055e-06
-4.04996e-08
-3.1767e-06
-6.94543e-08
-3.55739e-06
-1.0198e-07
-3.9555e-06
-1.43368e-07
-4.4013e-06
-1.96487e-07
-4.96156e-06
-2.51374e-07
-5.72808e-06
-2.81731e-07
-6.74141e-06
-2.10247e-07
-7.71569e-06
-7.74205e-06
1.83877e-07
2.73532e-06
2.89145e-07
4.04956e-06
3.61521e-07
4.56291e-06
4.22349e-07
4.83623e-06
4.73152e-07
4.91234e-06
5.04903e-07
4.82909e-06
5.17831e-07
4.59653e-06
5.22485e-07
4.27511e-06
5.21923e-07
3.92146e-06
5.18907e-07
3.56031e-06
5.15346e-07
3.20622e-06
5.12315e-07
2.86604e-06
5.10182e-07
2.54159e-06
5.08808e-07
2.23192e-06
5.07735e-07
1.93482e-06
5.06357e-07
1.64778e-06
5.04033e-07
1.36843e-06
5.00161e-07
1.09465e-06
4.94217e-07
8.24574e-07
4.85757e-07
5.56496e-07
4.74421e-07
2.88777e-07
4.59921e-07
1.97727e-08
4.42039e-07
-2.52232e-07
4.20611e-07
-5.29052e-07
3.95521e-07
-8.12653e-07
3.66723e-07
-1.10514e-06
3.34237e-07
-1.40868e-06
2.982e-07
-1.72526e-06
2.58961e-07
-2.05641e-06
2.17118e-07
-2.40244e-06
1.73432e-07
-2.76181e-06
1.28544e-07
-3.13182e-06
8.19942e-08
-3.51084e-06
3.12054e-08
-3.90471e-06
-2.89825e-08
-4.34111e-06
-1.02097e-07
-4.88845e-06
-1.7866e-07
-5.65152e-06
-2.32408e-07
-6.68766e-06
-1.89192e-07
-7.7589e-06
-7.93124e-06
2.41656e-07
2.49366e-06
3.98427e-07
3.89279e-06
5.09555e-07
4.45178e-06
6.01545e-07
4.74424e-06
6.74908e-07
4.83897e-06
7.27392e-07
4.7766e-06
7.54379e-07
4.56954e-06
7.6864e-07
4.26085e-06
7.74788e-07
3.91531e-06
7.76632e-07
3.55847e-06
7.76817e-07
3.20604e-06
7.76871e-07
2.86599e-06
7.77398e-07
2.54107e-06
7.78337e-07
2.23098e-06
7.79217e-07
1.93394e-06
7.79367e-07
1.64763e-06
7.78056e-07
1.36974e-06
7.74588e-07
1.09812e-06
7.68344e-07
8.30818e-07
7.58802e-07
5.66039e-07
7.45529e-07
3.0205e-07
7.28173e-07
3.71281e-08
7.06466e-07
-2.30525e-07
6.80196e-07
-5.02781e-07
6.49185e-07
-7.81641e-07
6.13298e-07
-1.06926e-06
5.72445e-07
-1.36782e-06
5.26635e-07
-1.67945e-06
4.76008e-07
-2.00579e-06
4.20877e-07
-2.3473e-06
3.61832e-07
-2.70277e-06
2.99537e-07
-3.06952e-06
2.34021e-07
-3.44532e-06
1.63378e-07
-3.83407e-06
8.28126e-08
-4.26055e-06
-1.19359e-08
-4.7937e-06
-1.11197e-07
-5.55226e-06
-1.87058e-07
-6.6118e-06
-1.69892e-07
-7.77607e-06
-8.10113e-06
2.97514e-07
2.19615e-06
5.04267e-07
3.68603e-06
6.52701e-07
4.30335e-06
7.74244e-07
4.6227e-06
8.70843e-07
4.74237e-06
9.45395e-07
4.70205e-06
9.88677e-07
4.52626e-06
1.0136e-06
4.23593e-06
1.02765e-06
3.90126e-06
1.03552e-06
3.5506e-06
1.04044e-06
3.20112e-06
1.04436e-06
2.86207e-06
1.04815e-06
2.53727e-06
1.0519e-06
2.22724e-06
1.05516e-06
1.93068e-06
1.05722e-06
1.64557e-06
1.05729e-06
1.36967e-06
1.05457e-06
1.10083e-06
1.04835e-06
8.37032e-07
1.03803e-06
5.76362e-07
1.02308e-06
3.16996e-07
1.00309e-06
5.71218e-08
9.77712e-07
-2.05148e-07
9.46673e-07
-4.71741e-07
9.09724e-07
-7.44693e-07
8.66656e-07
-1.02619e-06
8.17284e-07
-1.31845e-06
7.61428e-07
-1.6236e-06
6.98954e-07
-1.94331e-06
6.29952e-07
-2.2783e-06
5.54824e-07
-2.62764e-06
4.74175e-07
-2.98887e-06
3.88413e-07
-3.35956e-06
2.96414e-07
-3.74207e-06
1.94015e-07
-4.15815e-06
7.69525e-08
-4.67664e-06
-4.59758e-08
-5.42933e-06
-1.44121e-07
-6.51365e-06
-1.5415e-07
-7.76604e-06
-8.25528e-06
3.49116e-07
1.84703e-06
6.03688e-07
3.43146e-06
7.88316e-07
4.11872e-06
9.37962e-07
4.47306e-06
1.05969e-06
4.62064e-06
1.15471e-06
4.60703e-06
1.21807e-06
4.4629e-06
1.25648e-06
4.19752e-06
1.2804e-06
3.87734e-06
1.29591e-06
3.53509e-06
1.30692e-06
3.19011e-06
1.31581e-06
2.85318e-06
1.32375e-06
2.52933e-06
1.33101e-06
2.21997e-06
1.33724e-06
1.92446e-06
1.34172e-06
1.64109e-06
1.34361e-06
1.36778e-06
1.34206e-06
1.10239e-06
1.33626e-06
8.42829e-07
1.32552e-06
5.87105e-07
1.30923e-06
3.3329e-07
1.28687e-06
7.94755e-08
1.25804e-06
-1.7632e-07
1.22238e-06
-4.36073e-07
1.17953e-06
-7.01851e-07
1.12921e-06
-9.75862e-07
1.07108e-06
-1.26032e-06
1.0048e-06
-1.55732e-06
9.3002e-07
-1.86854e-06
8.46533e-07
-2.19481e-06
7.54411e-07
-2.53552e-06
6.54259e-07
-2.88872e-06
5.46862e-07
-3.25216e-06
4.31876e-07
-3.62709e-06
3.05885e-07
-4.03216e-06
1.65204e-07
-4.53596e-06
1.95563e-08
-5.28368e-06
-1.02658e-07
-6.39144e-06
-1.37253e-07
-7.73144e-06
-8.39254e-06
3.91678e-07
1.45535e-06
6.90856e-07
3.13228e-06
9.11523e-07
3.89805e-06
1.0894e-06
4.29518e-06
1.23649e-06
4.47356e-06
1.35323e-06
4.49029e-06
1.43923e-06
4.3769e-06
1.49488e-06
4.14188e-06
1.53171e-06
3.84051e-06
1.55729e-06
3.50951e-06
1.57639e-06
3.17101e-06
1.5919e-06
2.83767e-06
1.60531e-06
2.51591e-06
1.61714e-06
2.20815e-06
1.62717e-06
1.91443e-06
1.63476e-06
1.6335e-06
1.63907e-06
1.36347e-06
1.6392e-06
1.10225e-06
1.63429e-06
8.4774e-07
1.62355e-06
5.97842e-07
1.60629e-06
3.50551e-07
1.58191e-06
1.0386e-07
1.54989e-06
-1.44307e-07
1.50978e-06
-3.95958e-07
1.46112e-06
-6.53189e-07
1.40347e-06
-9.18216e-07
1.33636e-06
-1.19321e-06
1.25924e-06
-1.4802e-06
1.17153e-06
-1.78082e-06
1.0727e-06
-2.09599e-06
9.62602e-07
-2.42541e-06
8.41709e-07
-2.76783e-06
7.11013e-07
-3.12147e-06
5.71087e-07
-3.48716e-06
4.19369e-07
-3.88044e-06
2.52099e-07
-4.36869e-06
7.77831e-08
-5.10936e-06
-6.69785e-08
-6.24668e-06
-1.2503e-07
-7.67339e-06
-8.51757e-06
4.15489e-07
1.03987e-06
7.56496e-07
2.79128e-06
1.01625e-06
3.6383e-06
1.22352e-06
4.0879e-06
1.39576e-06
4.30132e-06
1.53706e-06
4.34899e-06
1.64722e-06
4.26674e-06
1.72462e-06
4.06448e-06
1.77874e-06
3.78639e-06
1.81802e-06
3.47023e-06
1.84816e-06
3.14087e-06
1.87267e-06
2.81316e-06
1.8935e-06
2.49508e-06
1.91145e-06
2.1902e-06
1.92651e-06
1.89937e-06
1.9382e-06
1.62181e-06
1.94573e-06
1.35593e-06
1.94822e-06
1.09976e-06
1.94477e-06
8.51192e-07
1.93454e-06
6.08073e-07
1.91674e-06
3.68346e-07
1.8907e-06
1.29907e-07
1.85579e-06
-1.09397e-07
1.81141e-06
-3.51586e-07
1.75699e-06
-5.98769e-07
1.69193e-06
-8.53152e-07
1.61554e-06
-1.11682e-06
1.52707e-06
-1.39173e-06
1.42564e-06
-1.67939e-06
1.3105e-06
-1.98085e-06
1.1812e-06
-2.29611e-06
1.03815e-06
-2.62477e-06
8.82464e-07
-2.96579e-06
7.1555e-07
-3.32025e-06
5.35935e-07
-3.70082e-06
3.40113e-07
-4.17287e-06
1.36966e-07
-4.90622e-06
-3.48628e-08
-6.07485e-06
-1.13172e-07
-7.59508e-06
-8.63074e-06
4.01754e-07
6.38112e-07
7.89477e-07
2.40355e-06
1.09342e-06
3.33436e-06
1.33266e-06
3.84867e-06
1.53079e-06
4.10319e-06
1.69869e-06
4.18109e-06
1.83608e-06
4.12935e-06
1.93995e-06
3.9606e-06
2.01678e-06
3.70956e-06
2.07471e-06
3.41229e-06
2.12008e-06
3.0955e-06
2.15708e-06
2.77616e-06
2.18814e-06
2.46401e-06
2.21448e-06
2.16387e-06
2.23638e-06
1.87746e-06
2.2536e-06
1.6046e-06
2.26548e-06
1.34405e-06
2.27123e-06
1.09401e-06
2.26997e-06
8.52449e-07
2.26085e-06
6.17193e-07
2.24302e-06
3.8618e-07
2.21571e-06
1.57218e-07
2.17818e-06
-7.1868e-08
2.12971e-06
-3.03122e-07
2.06956e-06
-5.38611e-07
1.99691e-06
-7.80506e-07
1.91086e-06
-1.03076e-06
1.81038e-06
-1.29125e-06
1.69433e-06
-1.56335e-06
1.56172e-06
-1.84823e-06
1.41187e-06
-2.14626e-06
1.24513e-06
-2.45804e-06
1.06274e-06
-2.78339e-06
8.6674e-07
-3.12425e-06
6.56907e-07
-3.49099e-06
4.30771e-07
-3.94673e-06
1.96355e-07
-4.6718e-06
-8.5924e-09
-5.8699e-06
-1.06421e-07
-7.49726e-06
-8.73716e-06
3.26541e-07
3.11571e-07
7.82904e-07
1.94719e-06
1.13223e-06
2.98504e-06
1.4067e-06
3.57419e-06
1.63363e-06
3.87626e-06
1.82991e-06
3.98481e-06
1.99791e-06
3.96135e-06
2.13341e-06
3.8251e-06
2.23928e-06
3.6037e-06
2.32212e-06
3.32946e-06
2.38828e-06
3.02934e-06
2.44246e-06
2.72198e-06
2.48766e-06
2.41881e-06
2.52557e-06
2.12596e-06
2.55689e-06
1.84614e-06
2.58166e-06
1.57983e-06
2.5995e-06
1.32621e-06
2.60976e-06
1.08375e-06
2.61168e-06
8.5053e-07
2.60442e-06
6.24447e-07
2.58714e-06
4.03467e-07
2.55901e-06
1.8535e-07
2.51908e-06
-3.19464e-08
2.46665e-06
-2.50689e-07
2.40069e-06
-4.72652e-07
2.3202e-06
-7.0001e-07
2.22397e-06
-9.34537e-07
2.11072e-06
-1.178e-06
1.97903e-06
-1.43166e-06
1.8277e-06
-1.69691e-06
1.6559e-06
-1.97446e-06
1.46395e-06
-2.2661e-06