/*--------------------------------*- C++ -*----------------------------------*\
  =========                 |
  \\      /  F ield         | OpenFOAM: The Open Source CFD Toolbox
   \\    /   O peration     | Website:  https://openfoam.org
    \\  /    A nd           | Version:  12
     \\/     M anipulation  |
\*---------------------------------------------------------------------------*/
FoamFile
{
    format      ascii;
    class       volVectorField;
    location    "9.5";
    object      U;
}
// * * * * * * * * * * * * * * * * * * * * * * * * * * * * * * * * * * * * * //

dimensions      [0 1 -1 0 0 0 0];

internalField   nonuniform List<vector> 
1600
(
(0.00140814 -0.00119517 0)
(0.00695891 -0.0017982 0)
(0.0120504 -0.00143063 0)
(0.0150225 -0.000179849 0)
(0.0151728 0.000403848 0)
(0.0145168 0.000169022 0)
(0.0136714 -0.000707821 0)
(0.0134939 -0.00129411 0)
(0.0130863 -0.00126476 0)
(0.0117693 -0.000934228 0)
(0.00880765 -0.000742922 0)
(0.00105525 0.000195648 0)
(-0.0103664 0.00256962 0)
(-0.0232105 0.00884117 0)
(-0.0512624 0.0143616 0)
(-0.076427 0.0138593 0)
(-0.0994491 0.0126928 0)
(-0.118871 0.0108943 0)
(-0.135111 0.00914816 0)
(-0.148214 0.00738111 0)
(-0.158299 0.00571357 0)
(-0.165564 0.00408543 0)
(-0.169551 0.0026102 0)
(-0.171068 0.0011369 0)
(-0.169757 -0.00128275 0)
(-0.164743 -0.00287156 0)
(-0.156754 -0.0052061 0)
(-0.144663 -0.00703702 0)
(-0.129147 -0.00937107 0)
(-0.11001 -0.0116417 0)
(-0.0874381 -0.0138979 0)
(-0.0621548 -0.0153574 0)
(-0.0354539 -0.015678 0)
(-0.00818154 -0.0142494 0)
(0.0139246 -0.0120336 0)
(0.0303336 -0.00484616 0)
(0.0320908 0.00313776 0)
(0.0255869 0.00535025 0)
(0.0123935 0.00475758 0)
(0.00261224 0.00322554 0)
(0.00244455 -0.00692333 0)
(0.0116491 -0.00992231 0)
(0.0173827 -0.00699181 0)
(0.0205312 -0.0025417 0)
(0.0206113 0.000744177 0)
(0.0182841 0.00184234 0)
(0.0143653 0.00157748 0)
(0.00902709 0.00187166 0)
(0.000617631 0.00347238 0)
(-0.0124141 0.00660987 0)
(-0.0313709 0.0124502 0)
(-0.0594651 0.0218512 0)
(-0.091526 0.0309922 0)
(-0.118989 0.0368077 0)
(-0.141361 0.0360654 0)
(-0.160829 0.0332298 0)
(-0.17699 0.0290517 0)
(-0.190412 0.0245227 0)
(-0.201122 0.0199814 0)
(-0.20934 0.0155473 0)
(-0.215113 0.0112709 0)
(-0.218562 0.00705894 0)
(-0.219698 0.00289277 0)
(-0.218577 -0.00143763 0)
(-0.214889 -0.00612053 0)
(-0.208743 -0.0109659 0)
(-0.199796 -0.0161356 0)
(-0.187845 -0.0215595 0)
(-0.172556 -0.0272331 0)
(-0.153306 -0.0326977 0)
(-0.131073 -0.0378892 0)
(-0.105881 -0.0417739 0)
(-0.0783731 -0.0427475 0)
(-0.0499105 -0.0396467 0)
(-0.0224194 -0.0310712 0)
(0.000938645 -0.0147972 0)
(0.0169473 0.00375356 0)
(0.0172051 0.0118659 0)
(0.0103289 0.0143653 0)
(0.00161199 0.011167 0)
(0.00378549 -0.0158499 0)
(0.0124605 -0.0175478 0)
(0.0156984 -0.0112122 0)
(0.0163185 -0.00304526 0)
(0.0140328 0.00281831 0)
(0.00877831 0.00589351 0)
(-0.000457064 0.0081592 0)
(-0.0146938 0.0129444 0)
(-0.0357009 0.0220002 0)
(-0.0637222 0.0341311 0)
(-0.0946684 0.0456262 0)
(-0.122838 0.0525573 0)
(-0.146822 0.0555137 0)
(-0.165674 0.0549613 0)
(-0.181233 0.0513861 0)
(-0.193806 0.0463036 0)
(-0.204069 0.04014 0)
(-0.212326 0.0337512 0)
(-0.218844 0.0273191 0)
(-0.223704 0.0210543 0)
(-0.227133 0.0146228 0)
(-0.228909 0.0085605 0)
(-0.229081 0.00240733 0)
(-0.227519 -0.00378572 0)
(-0.224291 -0.0102787 0)
(-0.219288 -0.0172073 0)
(-0.212391 -0.0248506 0)
(-0.203358 -0.0332009 0)
(-0.192064 -0.0423534 0)
(-0.178092 -0.0516499 0)
(-0.160945 -0.0604907 0)
(-0.140374 -0.0675122 0)
(-0.116367 -0.0704388 0)
(-0.0902471 -0.0682418 0)
(-0.0621334 -0.0574567 0)
(-0.033638 -0.0365764 0)
(-0.00658261 -0.00633734 0)
(0.00163422 0.0118993 0)
(0.00185541 0.018894 0)
(-0.000275551 0.0148763 0)
(0.00418829 -0.0248723 0)
(0.00882355 -0.0220542 0)
(0.00880182 -0.0113231 0)
(0.00548453 -6.06052e-05 0)
(-0.000898697 0.00869864 0)
(-0.011851 0.0162313 0)
(-0.0288471 0.0251224 0)
(-0.0521032 0.0370629 0)
(-0.0801906 0.0509692 0)
(-0.109954 0.0633858 0)
(-0.1364 0.0712797 0)
(-0.156812 0.0739513 0)
(-0.172902 0.0729573 0)
(-0.185134 0.0688943 0)
(-0.195169 0.0629814 0)
(-0.202995 0.0559561 0)
(-0.209399 0.048312 0)
(-0.214546 0.0403271 0)
(-0.218951 0.0321969 0)
(-0.222226 0.0242599 0)
(-0.224374 0.0167259 0)
(-0.225271 0.00911413 0)
(-0.225013 0.0015212 0)
(-0.223581 -0.00624646 0)
(-0.220989 -0.0142478 0)
(-0.217107 -0.0227084 0)
(-0.211882 -0.0317724 0)
(-0.205185 -0.0415662 0)
(-0.196867 -0.0521695 0)
(-0.186906 -0.0638424 0)
(-0.17512 -0.0759657 0)
(-0.16123 -0.0876229 0)
(-0.144495 -0.0961992 0)
(-0.12272 -0.0974921 0)
(-0.0963337 -0.0883115 0)
(-0.065663 -0.0657672 0)
(-0.0295326 -0.0274403 0)
(-0.00757478 0.00466323 0)
(-0.00244472 0.0166809 0)
(-0.000343903 0.0143255 0)
(0.00236119 -0.0293445 0)
(0.00291543 -0.0216668 0)
(-0.00180217 -0.00675137 0)
(-0.0093632 0.00755085 0)
(-0.0209194 0.0207058 0)
(-0.0377221 0.0339008 0)
(-0.0603215 0.0486962 0)
(-0.0870984 0.0645963 0)
(-0.114616 0.078541 0)
(-0.138857 0.0874738 0)
(-0.157102 0.0903386 0)
(-0.170905 0.0890752 0)
(-0.181514 0.08481 0)
(-0.189496 0.0783158 0)
(-0.195909 0.0705574 0)
(-0.201003 0.0618375 0)
(-0.205344 0.0527873 0)
(-0.208635 0.0437769 0)
(-0.210791 0.0349824 0)
(-0.211923 0.0262831 0)
(-0.212384 0.0177434 0)
(-0.212121 0.00924468 0)
(-0.211261 0.000749314 0)
(-0.209763 -0.00794294 0)
(-0.207476 -0.0169304 0)
(-0.204463 -0.0264544 0)
(-0.20068 -0.0366796 0)
(-0.196105 -0.0477688 0)
(-0.190651 -0.0597702 0)
(-0.184186 -0.0725876 0)
(-0.17647 -0.0859189 0)
(-0.167107 -0.0990266 0)
(-0.155895 -0.111358 0)
(-0.141648 -0.119492 0)
(-0.121559 -0.117884 0)
(-0.0933877 -0.100454 0)
(-0.0572464 -0.064215 0)
(-0.0172643 -0.0133997 0)
(-0.00231754 0.0111182 0)
(0.000699156 0.013255 0)
(-0.000810897 -0.0298317 0)
(-0.00501764 -0.0161808 0)
(-0.0138626 0.00193159 0)
(-0.0257125 0.0200202 0)
(-0.041849 0.0378646 0)
(-0.062738 0.0560285 0)
(-0.0873745 0.0742316 0)
(-0.112747 0.0901935 0)
(-0.135241 0.10094 0)
(-0.152102 0.104788 0)
(-0.164294 0.103558 0)
(-0.173604 0.0991879 0)
(-0.180409 0.0924034 0)
(-0.185486 0.0841151 0)
(-0.189312 0.0748993 0)
(-0.191918 0.0652733 0)
(-0.19362 0.0555032 0)
(-0.194558 0.045741 0)
(-0.195014 0.0361495 0)
(-0.195151 0.0267831 0)
(-0.194784 0.0176545 0)
(-0.19401 0.00863363 0)
(-0.192804 -0.000363059 0)
(-0.191136 -0.00950737 0)
(-0.18898 -0.018952 0)
(-0.186426 -0.0289053 0)
(-0.18349 -0.0395604 0)
(-0.180219 -0.0511226 0)
(-0.176625 -0.0637559 0)
(-0.172688 -0.0775185 0)
(-0.168278 -0.0922195 0)
(-0.163059 -0.107262 0)
(-0.156349 -0.121388 0)
(-0.147005 -0.132763 0)
(-0.133553 -0.138712 0)
(-0.112879 -0.131944 0)
(-0.0822813 -0.10504 0)
(-0.0382866 -0.0517551 0)
(-0.00506945 -0.00167236 0)
(0.00168669 0.0125193 0)
(-0.00412046 -0.0240591 0)
(-0.0128761 -0.00668974 0)
(-0.0253737 0.0146079 0)
(-0.0409295 0.0364406 0)
(-0.060352 0.0583295 0)
(-0.0827608 0.0794116 0)
(-0.106132 0.0979538 0)
(-0.12736 0.111263 0)
(-0.143472 0.117195 0)
(-0.154587 0.116724 0)
(-0.162746 0.112545 0)
(-0.168551 0.10572 0)
(-0.17247 0.0971114 0)
(-0.175094 0.0874689 0)
(-0.176676 0.0772131 0)
(-0.17751 0.0667426 0)
(-0.17787 0.0563015 0)
(-0.177874 0.0460582 0)
(-0.177619 0.0360943 0)
(-0.177084 0.0263848 0)
(-0.176248 0.0168889 0)
(-0.175128 0.00750431 0)
(-0.173701 -0.00186065 0)
(-0.171958 -0.0113293 0)
(-0.169906 -0.0210777 0)
(-0.167603 -0.0312655 0)
(-0.165108 -0.0420725 0)
(-0.1625 -0.0536849 0)
(-0.159857 -0.0662882 0)
(-0.157235 -0.0800302 0)
(-0.154628 -0.0949454 0)
(-0.151867 -0.110795 0)
(-0.148426 -0.126835 0)
(-0.1432 -0.141395 0)
(-0.13446 -0.15171 0)
(-0.120162 -0.153722 0)
(-0.0977754 -0.139561 0)
(-0.0635193 -0.0986365 0)
(-0.0146137 -0.0238058 0)
(0.00267594 0.0113809 0)
(-0.00711604 -0.0141642 0)
(-0.0193399 0.00698358 0)
(-0.0346664 0.030666 0)
(-0.0531381 0.0555357 0)
(-0.0739001 0.0797568 0)
(-0.095604 0.101333 0)
(-0.115961 0.117918 0)
(-0.132041 0.127032 0)
(-0.142808 0.128318 0)
(-0.150219 0.124772 0)
(-0.155403 0.118212 0)
(-0.158658 0.109487 0)
(-0.160572 0.0994998 0)
(-0.161542 0.0888148 0)
(-0.161853 0.0778332 0)
(-0.161786 0.0668825 0)
(-0.161483 0.0561283 0)
(-0.16101 0.0456641 0)
(-0.160381 0.0354961 0)
(-0.159573 0.0255754 0)
(-0.15857 0.0158404 0)
(-0.157348 0.00620121 0)
(-0.155891 -0.0034304 0)
(-0.154182 -0.0131693 0)
(-0.152239 -0.0231516 0)
(-0.150103 -0.0335188 0)
(-0.147845 -0.0444274 0)
(-0.145564 -0.0560464 0)
(-0.14337 -0.0685554 0)
(-0.141371 -0.0821218 0)
(-0.139627 -0.0968528 0)
(-0.138074 -0.112702 0)
(-0.136369 -0.129294 0)
(-0.133651 -0.145681 0)
(-0.128416 -0.159811 0)
(-0.118699 -0.167883 0)
(-0.102465 -0.163771 0)
(-0.0767572 -0.137069 0)
(-0.0332388 -0.0677413 0)
(0.000412817 0.000499767 0)
(-0.00882251 -0.000401226 0)
(-0.0240326 0.0238377 0)
(-0.0412805 0.0489763 0)
(-0.0610268 0.0753938 0)
(-0.0816159 0.100183 0)
(-0.10142 0.120545 0)
(-0.118096 0.133776 0)
(-0.129297 0.138052 0)
(-0.136577 0.135888 0)
(-0.141485 0.129942 0)
(-0.144538 0.121465 0)
(-0.146129 0.111334 0)
(-0.146803 0.10036 0)
(-0.146856 0.0890083 0)
(-0.146564 0.077637 0)
(-0.146105 0.0664647 0)
(-0.145548 0.055578 0)
(-0.144921 0.0450049 0)
(-0.144207 0.0347122 0)
(-0.143378 0.0246441 0)
(-0.142399 0.0147333 0)
(-0.141233 0.00488999 0)
(-0.139853 -0.00496663 0)
(-0.138241 -0.0149332 0)
(-0.136406 -0.0251169 0)
(-0.134382 -0.0356279 0)
(-0.132232 -0.0465926 0)
(-0.130054 -0.0581545 0)
(-0.127976 -0.0704834 0)
(-0.126139 -0.0837716 0)
(-0.124661 -0.0982078 0)
(-0.123572 -0.113901 0)
(-0.12269 -0.130742 0)
(-0.121409 -0.148182 0)
(-0.118428 -0.164813 0)
(-0.111926 -0.177584 0)
(-0.100206 -0.180741 0)
(-0.0810419 -0.165789 0)
(-0.0506264 -0.115076 0)
(-0.00694261 -0.0148741 0)
(-0.0098312 0.0156927 0)
(-0.0267222 0.0422674 0)
(-0.0447554 0.0681073 0)
(-0.0646971 0.0948898 0)
(-0.0841794 0.119043 0)
(-0.101644 0.136942 0)
(-0.113846 0.145349 0)
(-0.121936 0.145849 0)
(-0.126952 0.141009 0)
(-0.130146 0.133118 0)
(-0.131815 0.123155 0)
(-0.132439 0.112022 0)
(-0.132461 0.100403 0)
(-0.132119 0.0886829 0)
(-0.131631 0.0771375 0)
(-0.131091 0.0658855 0)
(-0.130532 0.0549556 0)
(-0.129952 0.0443309 0)
(-0.129319 0.033958 0)
(-0.128594 0.0237719 0)
(-0.127734 0.0137021 0)
(-0.1267 0.0036675 0)
(-0.125456 -0.00640939 0)
(-0.123988 -0.0166047 0)
(-0.122291 -0.0270044 0)
(-0.120389 -0.0376907 0)
(-0.118328 -0.0487565 0)
(-0.11619 -0.0603096 0)
(-0.114088 -0.0724868 0)
(-0.112169 -0.0854671 0)
(-0.110582 -0.099475 0)
(-0.109428 -0.114748 0)
(-0.108675 -0.131437 0)
(-0.107976 -0.149409 0)
(-0.106313 -0.167861 0)
(-0.101857 -0.184369 0)
(-0.0931059 -0.193348 0)
(-0.0782458 -0.187542 0)
(-0.0550527 -0.15098 0)
(-0.0158218 -0.0426909 0)
(-0.0102569 0.0329331 0)
(-0.0276458 0.061395 0)
(-0.0454453 0.0871492 0)
(-0.0646834 0.113405 0)
(-0.0826338 0.135859 0)
(-0.0968101 0.149806 0)
(-0.105711 0.154035 0)
(-0.111927 0.151503 0)
(-0.115366 0.144493 0)
(-0.117479 0.135031 0)
(-0.118333 0.123948 0)
(-0.11849 0.112124 0)
(-0.11826 0.100113 0)
(-0.117843 0.0882155 0)
(-0.117388 0.0766154 0)
(-0.116937 0.0653561 0)
(-0.116501 0.0544244 0)
(-0.116057 0.0437726 0)
(-0.115565 0.0333343 0)
(-0.114984 0.0230391 0)
(-0.11427 0.012817 0)
(-0.113387 0.00259633 0)
(-0.112303 -0.00769473 0)
(-0.111001 -0.0181183 0)
(-0.109471 -0.0287421 0)
(-0.107724 -0.0396294 0)
(-0.105789 -0.0508459 0)
(-0.103721 -0.0624675 0)
(-0.10161 -0.074596 0)
(-0.0995789 -0.0873813 0)
(-0.0977784 -0.101046 0)
(-0.0963479 -0.115889 0)
(-0.0953511 -0.132237 0)
(-0.094656 -0.150272 0)
(-0.0935941 -0.169765 0)
(-0.0904587 -0.189305 0)
(-0.0837254 -0.203095 0)
(-0.0716672 -0.204712 0)
(-0.0515045 -0.180805 0)
(-0.0191567 -0.0931692 0)
(-0.0099865 0.0500859 0)
(-0.0269551 0.0801765 0)
(-0.0438541 0.105279 0)
(-0.0617295 0.130272 0)
(-0.0778317 0.150379 0)
(-0.0885285 0.159802 0)
(-0.0957993 0.160848 0)
(-0.100379 0.155696 0)
(-0.102866 0.146937 0)
(-0.104318 0.136212 0)
(-0.104767 0.124301 0)
(-0.104773 0.112015 0)
(-0.104531 0.0997773 0)
(-0.104208 0.0878098 0)
(-0.103892 0.0762115 0)
(-0.103599 0.0649725 0)
(-0.103322 0.0540471 0)
(-0.103028 0.0433677 0)
(-0.102679 0.0328613 0)
(-0.102236 0.0224562 0)
(-0.10166 0.0120855 0)
(-0.100922 0.00168536 0)
(-0.0999979 -0.00880879 0)
(-0.0988693 -0.0194522 0)
(-0.097524 -0.0302994 0)
(-0.0959631 -0.0414008 0)
(-0.0941972 -0.0528025 0)
(-0.0922572 -0.0645545 0)
(-0.0902006 -0.0767244 0)
(-0.0881197 -0.0894247 0)
(-0.0861437 -0.102852 0)
(-0.0844217 -0.117327 0)
(-0.0830744 -0.133286 0)
(-0.0821032 -0.151154 0)
(-0.0811776 -0.171103 0)
(-0.0789791 -0.192527 0)
(-0.0732262 -0.2115 0)
(-0.0637096 -0.218266 0)
(-0.0463309 -0.203944 0)
(-0.0161516 -0.127526 0)
(-0.00921745 0.0665335 0)
(-0.0250463 0.0980149 0)
(-0.0405783 0.122107 0)
(-0.0569393 0.145511 0)
(-0.0704294 0.162156 0)
(-0.0786567 0.167897 0)
(-0.0847431 0.166203 0)
(-0.0881654 0.158922 0)
(-0.0901028 0.148744 0)
(-0.0911769 0.137019 0)
(-0.0914855 0.124505 0)
(-0.0915143 0.111909 0)
(-0.0913795 0.0995436 0)
(-0.0912168 0.0875557 0)
(-0.0910698 0.0759757 0)
(-0.0909394 0.0647547 0)
(-0.0908084 0.053824 0)
(-0.0906442 0.0431046 0)
(-0.0904134 0.0325214 0)
(-0.0900848 0.0220051 0)
(-0.08963 0.0114929 0)
(-0.0890249 0.00092603 0)
(-0.0882539 -0.00975375 0)
(-0.0873 -0.0205989 0)
(-0.0861506 -0.0316569 0)
(-0.0847989 -0.0429713 0)
(-0.0832423 -0.0545771 0)
(-0.0814902 -0.0665066 0)
(-0.0795706 -0.0788002 0)
(-0.0775411 -0.0915333 0)
(-0.0754983 -0.104863 0)
(-0.0735773 -0.119091 0)
(-0.0719228 -0.134709 0)
(-0.0706152 -0.15234 0)
(-0.0695278 -0.172475 0)
(-0.0677791 -0.195094 0)
(-0.0629324 -0.218321 0)
(-0.0552993 -0.229973 0)
(-0.0405662 -0.224845 0)
(-0.0143171 -0.161454 0)
(-0.00805284 0.0814863 0)
(-0.0223449 0.114342 0)
(-0.0361886 0.137226 0)
(-0.0507641 0.158698 0)
(-0.0614818 0.1716 0)
(-0.0680989 0.174602 0)
(-0.0732281 0.170512 0)
(-0.0758368 0.161509 0)
(-0.0774628 0.150178 0)
(-0.0783387 0.13767 0)
(-0.0786534 0.124715 0)
(-0.0787816 0.111907 0)
(-0.0787951 0.0994654 0)
(-0.0787969 0.0874712 0)
(-0.078803 0.075902 0)
(-0.0788078 0.0646822 0)
(-0.0787912 0.0537275 0)
(-0.0787258 0.0429542 0)
(-0.0785865 0.0322882 0)
(-0.0783512 0.0216638 0)
(-0.0780006 0.011022 0)
(-0.0775184 0.000307556 0)
(-0.0768941 -0.0105346 0)
(-0.0761142 -0.0215559 0)
(-0.0751663 -0.0328022 0)
(-0.0740389 -0.0443148 0)
(-0.07272 -0.0561243 0)
(-0.0712024 -0.0682524 0)
(-0.0694905 -0.0807201 0)
(-0.0676109 -0.0935711 0)
(-0.0656273 -0.106919 0)
(-0.0636496 -0.121025 0)
(-0.0618245 -0.136383 0)
(-0.0602807 -0.153739 0)
(-0.0590067 -0.173873 0)
(-0.0575264 -0.197241 0)
(-0.0538996 -0.222949 0)
(-0.0466242 -0.240498 0)
(-0.0353634 -0.240817 0)
(-0.0117336 -0.187151 0)
(-0.00679359 0.0946911 0)
(-0.019114 0.12879 0)
(-0.0310647 0.150335 0)
(-0.0435933 0.169678 0)
(-0.0518437 0.179321 0)
(-0.0576167 0.180176 0)
(-0.0616379 0.174034 0)
(-0.0637295 0.163658 0)
(-0.0651524 0.151399 0)
(-0.0659344 0.138284 0)
(-0.0663152 0.125003 0)
(-0.0665591 0.11204 0)
(-0.0667141 0.0995414 0)
(-0.0668527 0.0875349 0)
(-0.0669773 0.0759589 0)
(-0.0670803 0.0647196 0)
(-0.0671444 0.0537241 0)
(-0.06715 0.0428877 0)
(-0.0670807 0.0321388 0)
(-0.066923 0.0214149 0)
(-0.0666657 0.0106602 0)
(-0.0662997 -0.000178813 0)
(-0.065818 -0.0111559 0)
(-0.065211 -0.0223234 0)
(-0.0644675 -0.0337294 0)
(-0.0635737 -0.0454166 0)
(-0.0625118 -0.0574164 0)
(-0.0612633 -0.0697465 0)
(-0.0598143 -0.0824156 0)
(-0.058167 -0.0954413 0)
(-0.0563556 -0.108896 0)
(-0.0544619 -0.122988 0)
(-0.0526208 -0.138181 0)
(-0.0509853 -0.155284 0)
(-0.0496121 -0.175329 0)
(-0.0482501 -0.199136 0)
(-0.0455005 -0.22659 0)
(-0.0390359 -0.249997 0)
(-0.0308623 -0.255481 0)
(-0.010268 -0.211257 0)
(-0.00524608 0.10547 0)
(-0.0155429 0.141058 0)
(-0.0255816 0.161446 0)
(-0.0359387 0.178559 0)
(-0.0422163 0.185638 0)
(-0.0471425 0.184689 0)
(-0.0502508 0.176935 0)
(-0.0519932 0.165484 0)
(-0.0532582 0.152493 0)
(-0.0539966 0.13891 0)
(-0.0544501 0.125381 0)
(-0.0547927 0.112294 0)
(-0.0550577 0.0997421 0)
(-0.0552936 0.0877092 0)
(-0.0554976 0.0761075 0)
(-0.0556637 0.0648317 0)
(-0.05578 0.0537847 0)
(-0.0558355 0.0428829 0)
(-0.0558216 0.0320571 0)
(-0.0557323 0.0212477 0)
(-0.0555627 0.0104003 0)
(-0.0553089 -0.000537749 0)
(-0.0549675 -0.0116201 0)
(-0.0545325 -0.0229017 0)
(-0.0539943 -0.0344347 0)
(-0.0533392 -0.0462661 0)
(-0.0525467 -0.0584318 0)
(-0.0515914 -0.0709512 0)
(-0.0504469 -0.0838264 0)
(-0.0490967 -0.0970557 0)
(-0.0475504 -0.110673 0)
(-0.0458646 -0.124833 0)
(-0.0441587 -0.139944 0)
(-0.0426035 -0.156826 0)
(-0.0413182 -0.176693 0)
(-0.0401451 -0.200679 0)
(-0.0381123 -0.229101 0)
(-0.0331598 -0.257192 0)
(-0.0260206 -0.267408 0)
(-0.00861448 -0.230173 0)
(-0.00388205 0.114141 0)
(-0.0118484 0.151158 0)
(-0.0200039 0.170566 0)
(-0.0281498 0.185509 0)
(-0.032773 0.19067 0)
(-0.0368529 0.188291 0)
(-0.0392072 0.179316 0)
(-0.0406728 0.167048 0)
(-0.0417928 0.153492 0)
(-0.0425006 0.139553 0)
(-0.0430051 0.12583 0)
(-0.0434135 0.112637 0)
(-0.0437487 0.100028 0)
(-0.0440415 0.0879541 0)
(-0.044289 0.0763118 0)
(-0.0444889 0.0649892 0)
(-0.044636 0.0538876 0)
(-0.0447266 0.0429248 0)
(-0.044759 0.0320337 0)
(-0.044733 0.0211563 0)
(-0.0446485 0.0102391 0)
(-0.0445057 -0.00077097 0)
(-0.044304 -0.0119286 0)
(-0.0440402 -0.0232915 0)
(-0.0437073 -0.0349167 0)
(-0.0432931 -0.0468575 0)
(-0.0427773 -0.059157 0)
(-0.0421317 -0.0718403 0)
(-0.0413225 -0.0849089 0)
(-0.0403198 -0.0983471 0)
(-0.0391136 -0.112156 0)
(-0.0377366 -0.126434 0)
(-0.0362879 -0.141524 0)
(-0.0349379 -0.158216 0)
(-0.0338476 -0.177856 0)
(-0.0329346 -0.20191 0)
(-0.031518 -0.231153 0)
(-0.0278532 -0.262962 0)
(-0.0227228 -0.278062 0)
(-0.00748975 -0.247814 0)
(-0.00215373 0.120014 0)
(-0.00808248 0.158931 0)
(-0.0143436 0.177611 0)
(-0.0204085 0.190727 0)
(-0.0236327 0.194522 0)
(-0.026842 0.19108 0)
(-0.0285499 0.181244 0)
(-0.0297549 0.168381 0)
(-0.0307248 0.154403 0)
(-0.0313914 0.140197 0)
(-0.0319132 0.126319 0)
(-0.0323504 0.113031 0)
(-0.0327164 0.100358 0)
(-0.0330301 0.0882332 0)
(-0.0332912 0.0765418 0)
(-0.033502 0.0651693 0)
(-0.0336636 0.0540167 0)
(-0.0337789 0.0430032 0)
(-0.0338518 0.0320628 0)
(-0.0338863 0.0211382 0)
(-0.0338863 0.0101755 0)
(-0.0338545 -0.000879095 0)
(-0.0337927 -0.0120819 0)
(-0.0337003 -0.0234932 0)
(-0.0335729 -0.0351752 0)
(-0.0334006 -0.0471879 0)
(-0.0331656 -0.0595832 0)
(-0.0328402 -0.072395 0)
(-0.032388 -0.0856289 0)
(-0.0317709 -0.099262 0)
(-0.0309649 -0.113268 0)
(-0.0299831 -0.127694 0)
(-0.0289056 -0.142806 0)
(-0.0278931 -0.159333 0)
(-0.0271258 -0.17868 0)
(-0.0265889 -0.202662 0)
(-0.0258492 -0.23262 0)
(-0.0234417 -0.266666 0)
(-0.0195109 -0.286505 0)
(-0.0063143 -0.262113 0)
(-0.000962369 0.123904 0)
(-0.00438928 0.16449 0)
(-0.00873 0.182634 0)
(-0.0128061 0.194342 0)
(-0.0148637 0.197329 0)
(-0.0171175 0.193101 0)
(-0.018257 0.182726 0)
(-0.0191936 0.169477 0)
(-0.0199985 0.155209 0)
(-0.0206005 0.140813 0)
(-0.0211036 0.126812 0)
(-0.021534 0.113436 0)
(-0.0218958 0.100698 0)
(-0.0222006 0.0885161 0)
(-0.0224515 0.0767736 0)
(-0.0226551 0.0653545 0)
(-0.0228188 0.0541604 0)
(-0.0229509 0.0431112 0)
(-0.0230596 0.0321409 0)
(-0.0231526 0.0211919 0)
(-0.0232364 0.0102095 0)
(-0.0233163 -0.000861622 0)
(-0.0233955 -0.0120794 0)
(-0.0234755 -0.0235066 0)
(-0.0235544 -0.0352099 0)
(-0.0236255 -0.0472559 0)
(-0.0236741 -0.0597056 0)
(-0.0236759 -0.0726031 0)
(-0.0235957 -0.0859624 0)
(-0.0233919 -0.0997588 0)
(-0.023031 -0.113945 0)
(-0.0225095 -0.128521 0)
(-0.0218876 -0.143678 0)
(-0.0213097 -0.160066 0)
(-0.0209653 -0.179098 0)
(-0.0209106 -0.202883 0)
(-0.0208888 -0.233305 0)
(-0.0196213 -0.269463 0)
(-0.0172031 -0.293829 0)
(-0.00545452 -0.275455 0)
(0.00093931 0.124867 0)
(-0.00069169 0.167809 0)
(-0.00314738 0.185706 0)
(-0.00540432 0.196511 0)
(-0.00638017 0.199047 0)
(-0.00767521 0.194401 0)
(-0.00828081 0.183792 0)
(-0.00892655 0.170335 0)
(-0.00954581 0.155892 0)
(-0.0100544 0.141369 0)
(-0.0105052 0.127275 0)
(-0.0108977 0.113822 0)
(-0.011227 0.101017 0)
(-0.0114991 0.0887785 0)
(-0.0117204 0.076988 0)
(-0.0119023 0.0655309 0)
(-0.0120574 0.0543092 0)
(-0.0121988 0.0432426 0)
(-0.0123385 0.0322645 0)
(-0.0124874 0.0213161 0)
(-0.0126542 0.0103411 0)
(-0.0128459 -0.00071739 0)
(-0.0130672 -0.0119194 0)
(-0.0133215 -0.02333 0)
(-0.0136089 -0.0350197 0)
(-0.0139251 -0.0470604 0)
(-0.0142599 -0.0595209 0)
(-0.0145943 -0.0724569 0)
(-0.0148969 -0.0858929 0)
(-0.0151274 -0.0998079 0)
(-0.0152476 -0.114142 0)
(-0.0152406 -0.128852 0)
(-0.0151474 -0.144057 0)
(-0.0150922 -0.160316 0)
(-0.0152643 -0.179015 0)
(-0.0157867 -0.2025 0)
(-0.0165057 -0.23315 0)
(-0.016261 -0.270796 0)
(-0.0150743 -0.299416 0)
(-0.00458545 -0.286496 0)
(0.00212987 0.123569 0)
(0.00284606 0.168916 0)
(0.00231291 0.186951 0)
(0.00176137 0.197349 0)
(0.00187146 0.199766 0)
(0.00155059 0.194966 0)
(0.00145292 0.184373 0)
(0.0011157 0.170911 0)
(0.000706385 0.156417 0)
(0.000319508 0.141835 0)
(-5.0335e-05 0.127678 0)
(-0.000378564 0.114158 0)
(-0.000650938 0.101292 0)
(-0.000870708 0.0890007 0)
(-0.00104688 0.0771698 0)
(-0.00119473 0.0656869 0)
(-0.0013316 0.0544543 0)
(-0.00147477 0.0433913 0)
(-0.00164 0.0324296 0)
(-0.00184073 0.0215085 0)
(-0.0020881 0.0105698 0)
(-0.00239073 -0.000445702 0)
(-0.00275521 -0.0115998 0)
(-0.00318593 -0.0229601 0)
(-0.00368445 -0.0345999 0)
(-0.0042492 -0.0465961 0)
(-0.00487439 -0.0590248 0)
(-0.00554582 -0.0719509 0)
(-0.00623806 -0.0854095 0)
(-0.00691863 -0.0993869 0)
(-0.00754772 -0.113818 0)
(-0.0080974 -0.128628 0)
(-0.008591 -0.143867 0)
(-0.00913043 -0.160002 0)
(-0.00989698 -0.178363 0)
(-0.0110706 -0.201467 0)
(-0.0125931 -0.232219 0)
(-0.0133033 -0.271252 0)
(-0.0134843 -0.304061 0)
(-0.00391387 -0.29683 0)
(0.00341181 0.120158 0)
(0.00635933 0.16792 0)
(0.00765489 0.186541 0)
(0.0087039 0.196858 0)
(0.00995451 0.199322 0)
(0.0105485 0.194887 0)
(0.0109846 0.184538 0)
(0.0110005 0.171205 0)
(0.0108278 0.156763 0)
(0.0105903 0.142182 0)
(0.0103285 0.127994 0)
(0.0100871 0.114424 0)
(0.00988978 0.101505 0)
(0.00973767 0.089167 0)
(0.00961997 0.0773055 0)
(0.00951768 0.0658111 0)
(0.00940915 0.0545867 0)
(0.00927297 0.0435501 0)
(0.00908984 0.0326308 0)
(0.00884338 0.0217654 0)
(0.00852015 0.0108931 0)
(0.00810948 -4.75708e-05 0)
(0.00760318 -0.0111207 0)
(0.00699575 -0.0223959 0)
(0.0062837 -0.0339487 0)
(0.00546548 -0.0458595 0)
(0.00454419 -0.05821 0)
(0.00352985 -0.0710738 0)
(0.00243872 -0.0844985 0)
(0.00129501 -0.0984794 0)
(0.000136137 -0.112947 0)
(-0.0010067 -0.127804 0)
(-0.0021399 -0.143049 0)
(-0.00333958 -0.159049 0)
(-0.0047708 -0.177061 0)
(-0.00665021 -0.199713 0)
(-0.00902454 -0.230414 0)
(-0.0105646 -0.270485 0)
(-0.0120413 -0.307346 0)
(-0.00322308 -0.305507 0)
(0.00482495 0.114026 0)
(0.00988942 0.164795 0)
(0.0129054 0.184481 0)
(0.0154409 0.195066 0)
(0.0178273 0.197858 0)
(0.0193543 0.194056 0)
(0.0203801 0.184244 0)
(0.020781 0.171184 0)
(0.0208731 0.156905 0)
(0.020816 0.142389 0)
(0.0206885 0.128203 0)
(0.0205549 0.114599 0)
(0.0204502 0.101636 0)
(0.0203807 0.0892628 0)
(0.0203346 0.0773833 0)
(0.0202899 0.0658932 0)
(0.020221 0.0546967 0)
(0.0201022 0.04371 0)
(0.0199108 0.0328599 0)
(0.0196271 0.0220798 0)
(0.0192352 0.011306 0)
(0.0187221 0.000474185 0)
(0.0180776 -0.0104825 0)
(0.0172947 -0.0216357 0)
(0.0163676 -0.0330636 0)
(0.0152928 -0.0448487 0)
(0.0140708 -0.0570759 0)
(0.0127049 -0.0698235 0)
(0.0112019 -0.0831494 0)
(0.00958369 -0.0970626 0)
(0.00787668 -0.111497 0)
(0.00610764 -0.126343 0)
(0.00428649 -0.14155 0)
(0.00236666 -0.157395 0)
(0.000203918 -0.175041 0)
(-0.00244853 -0.197198 0)
(-0.00575826 -0.227799 0)
(-0.0080425 -0.26881 0)
(-0.010933 -0.309783 0)
(-0.00262651 -0.313635 0)
(0.00621489 0.105639 0)
(0.0133703 0.159628 0)
(0.0180634 0.180854 0)
(0.022002 0.19203 0)
(0.0256282 0.195284 0)
(0.0278553 0.192422 0)
(0.0296069 0.183522 0)
(0.0304711 0.170834 0)
(0.0308744 0.156808 0)
(0.0310379 0.142423 0)
(0.0310768 0.128277 0)
(0.0310778 0.114663 0)
(0.0310875 0.101672 0)
(0.0311177 0.0892746 0)
(0.0311575 0.0773898 0)
(0.0311834 0.0659205 0)
(0.0311663 0.0547722 0)
(0.0310768 0.0438598 0)
(0.0308884 0.0331067 0)
(0.0305779 0.0224428 0)
(0.0301265 0.0118011 0)
(0.0295184 0.00111403 0)
(0.028741 -0.00968832 0)
(0.0277856 -0.0206798 0)
(0.0266442 -0.0319397 0)
(0.0253109 -0.0435537 0)
(0.0237817 -0.0556094 0)
(0.0220542 -0.0681902 0)
(0.0201319 -0.0813573 0)
(0.0180243 -0.0951265 0)
(0.015743 -0.109444 0)
(0.0133176 -0.124203 0)
(0.0107643 -0.139319 0)
(0.0080705 -0.15498 0)
(0.00511452 -0.172237 0)
(0.00162843 -0.193847 0)
(-0.00269407 -0.224279 0)
(-0.00562957 -0.266167 0)
(-0.0101017 -0.310885 0)
(-0.00176555 -0.320606 0)
(0.00751325 0.09496 0)
(0.0167448 0.152405 0)
(0.0230848 0.175677 0)
(0.028354 0.187765 0)
(0.0330267 0.191948 0)
(0.0362336 0.189823 0)
(0.0386547 0.182154 0)
(0.0400816 0.170078 0)
(0.0408511 0.156422 0)
(0.0412834 0.142241 0)
(0.0415326 0.128184 0)
(0.0417032 0.114592 0)
(0.0418546 0.101591 0)
(0.0420063 0.0891849 0)
(0.0421504 0.0773105 0)
(0.0422629 0.0658796 0)
(0.0423125 0.0548007 0)
(0.0422666 0.0439873 0)
(0.0420948 0.0333598 0)
(0.0417702 0.0228442 0)
(0.0412707 0.0123694 0)
(0.0405772 0.00186478 0)
(0.0396746 -0.00874324 0)
(0.0385514 -0.0195307 0)
(0.0371971 -0.0305782 0)
(0.0356028 -0.0419727 0)
(0.0337611 -0.0538029 0)
(0.0316656 -0.066154 0)
(0.0293101 -0.0790941 0)
(0.0266892 -0.0926479 0)
(0.0238108 -0.106768 0)
(0.0206962 -0.12135 0)
(0.0173627 -0.1363 0)
(0.0138388 -0.151739 0)
(0.010031 -0.168595 0)
(0.00563892 -0.189633 0)
(0.000223875 -0.219872 0)
(-0.0032917 -0.262709 0)
(-0.00935517 -0.311092 0)
(-0.00105821 -0.327201 0)
(0.00865597 0.0820823 0)
(0.0199004 0.143229 0)
(0.0278625 0.169036 0)
(0.0344078 0.182349 0)
(0.0400321 0.187621 0)
(0.0443418 0.186416 0)
(0.0474337 0.18005 0)
(0.04955 0.168848 0)
(0.0507832 0.155689 0)
(0.0515564 0.141794 0)
(0.0520757 0.127882 0)
(0.0524655 0.114347 0)
(0.0527985 0.101365 0)
(0.0531035 0.0889719 0)
(0.0533775 0.0771267 0)
(0.0535983 0.0657539 0)
(0.0537336 0.0547664 0)
(0.0537486 0.0440776 0)
(0.0536095 0.033605 0)
(0.053286 0.0232706 0)
(0.0527519 0.0129992 0)
(0.0519856 0.00271654 0)
(0.0509679 -0.00765457 0)
(0.0496841 -0.0181924 0)
(0.0481209 -0.028979 0)
(0.0462653 -0.0401023 0)
(0.0441058 -0.0516515 0)
(0.0416295 -0.0637113 0)
(0.0388222 -0.0763489 0)
(0.03567 -0.0895965 0)
(0.0321648 -0.103424 0)
(0.0283173 -0.117741 0)
(0.024155 -0.132447 0)
(0.0197407 -0.147609 0)
(0.0150085 -0.164041 0)
(0.00963186 -0.184496 0)
(0.00308512 -0.21451 0)
(-0.000940022 -0.258297 0)
(-0.00869997 -0.310075 0)
(-0.000133331 -0.33297 0)
(0.00946571 0.0670748 0)
(0.0226716 0.132034 0)
(0.0321707 0.160879 0)
(0.039975 0.175785 0)
(0.0465925 0.18226 0)
(0.0518947 0.182267 0)
(0.0558767 0.177056 0)
(0.0587607 0.167002 0)
(0.0605957 0.154509 0)
(0.0618204 0.141001 0)
(0.0626981 0.127303 0)
(0.0633807 0.113878 0)
(0.0639551 0.100953 0)
(0.0644608 0.0886021 0)
(0.0649025 0.0768114 0)
(0.065262 0.0655206 0)
(0.0655085 0.0546495 0)
(0.0656064 0.0441126 0)
(0.0655196 0.0338255 0)
(0.065215 0.0237065 0)
(0.0646627 0.0136765 0)
(0.0638377 0.00365736 0)
(0.0627171 -0.00643188 0)
(0.0612819 -0.0166713 0)
(0.059515 -0.027144 0)
(0.0573989 -0.0379388 0)
(0.054916 -0.0491435 0)
(0.0520469 -0.0608415 0)
(0.0487683 -0.0730991 0)
(0.0450543 -0.0859525 0)
(0.0408836 -0.099382 0)
(0.0362625 -0.113323 0)
(0.0312132 -0.127693 0)
(0.0258363 -0.142523 0)
(0.0200853 -0.158497 0)
(0.0136369 -0.178349 0)
(0.00592781 -0.208131 0)
(0.00144368 -0.253039 0)
(-0.00836284 -0.308318 0)
(0.000741251 -0.338524 0)
(0.0096708 0.0503876 0)
(0.0246955 0.11904 0)
(0.0357312 0.151274 0)
(0.0448171 0.168091 0)
(0.052477 0.175854 0)
(0.0587748 0.177131 0)
(0.0637603 0.173176 0)
(0.0675392 0.164393 0)
(0.0701495 0.152745 0)
(0.0719857 0.139752 0)
(0.0733533 0.126357 0)
(0.0744359 0.113109 0)
(0.0753389 0.100294 0)
(0.0761155 0.0880273 0)
(0.0767806 0.0763263 0)
(0.0773232 0.0651486 0)
(0.0777166 0.054424 0)
(0.0779266 0.04407 0)
(0.0779169 0.0340017 0)
(0.0776529 0.0241342 0)
(0.0771007 0.0143856 0)
(0.0762333 0.00467372 0)
(0.0750231 -0.00508595 0)
(0.0734462 -0.0149744 0)
(0.071481 -0.0250758 0)
(0.0691041 -0.0354788 0)
(0.0662906 -0.0462687 0)
(0.0630125 -0.057526 0)
(0.0592368 -0.0693137 0)
(0.0549261 -0.0816715 0)
(0.0500466 -0.094594 0)
(0.0445982 -0.108046 0)
(0.0386016 -0.121968 0)
(0.0321839 -0.136394 0)
(0.0253265 -0.151878 0)
(0.0177313 -0.171085 0)
(0.008783 -0.200571 0)
(0.00387797 -0.246675 0)
(-0.00819151 -0.305608 0)
(0.00187535 -0.34345 0)
(0.00840266 0.032603 0)
(0.025475 0.104027 0)
(0.0381031 0.13997 0)
(0.0485871 0.159187 0)
(0.0573943 0.168443 0)
(0.0647311 0.170946 0)
(0.0708049 0.16827 0)
(0.0756411 0.160831 0)
(0.079231 0.150197 0)
(0.0818903 0.137873 0)
(0.0839323 0.124904 0)
(0.0855683 0.111927 0)
(0.0869261 0.0992956 0)
(0.0880757 0.0871746 0)
(0.0890457 0.0756136 0)
(0.0898359 0.0645927 0)
(0.0904271 0.0540538 0)
(0.0907899 0.0439206 0)
(0.0908897 0.0341091 0)
(0.0906927 0.024533 0)
(0.0901627 0.015109 0)
(0.0892706 0.00575104 0)
(0.0879845 -0.00362774 0)
(0.086275 -0.0131084 0)
(0.0841155 -0.0227755 0)
(0.0814753 -0.0327164 0)
(0.0783206 -0.0430124 0)
(0.0746133 -0.0537404 0)
(0.0703094 -0.0649588 0)
(0.0653604 -0.0767117 0)
(0.0597218 -0.0890069 0)
(0.0533894 -0.101847 0)
(0.0463813 -0.115205 0)
(0.0388469 -0.129135 0)
(0.0307841 -0.14409 0)
(0.0219609 -0.162641 0)
(0.0117234 -0.19181 0)
(0.00633243 -0.239124 0)
(-0.00840778 -0.302231 0)
(0.00316552 -0.348035 0)
(0.00453429 0.0165841 0)
(0.0241241 0.0875881 0)
(0.0388456 0.126936 0)
(0.0509223 0.148907 0)
(0.0610077 0.159952 0)
(0.0694532 0.16366 0)
(0.0766859 0.16219 0)
(0.0827544 0.156112 0)
(0.0875578 0.146637 0)
(0.0912964 0.135155 0)
(0.0942514 0.122761 0)
(0.0966472 0.11018 0)
(0.0986327 0.0978336 0)
(0.100298 0.0859424 0)
(0.101688 0.0745924 0)
(0.102818 0.0637886 0)
(0.103679 0.0534886 0)
(0.104251 0.0436245 0)
(0.104505 0.0341164 0)
(0.104409 0.0248779 0)
(0.103929 0.015827 0)
(0.103032 0.00687373 0)
(0.101683 -0.00206843 0)
(0.0998489 -0.0110783 0)
(0.097496 -0.0202414 0)
(0.094586 -0.0296424 0)
(0.0910751 -0.039356 0)
(0.0869131 -0.0494552 0)
(0.082045 -0.0599937 0)
(0.0764119 -0.0710223 0)
(0.0699612 -0.082563 0)
(0.0626872 -0.0946625 0)
(0.054604 -0.107331 0)
(0.0458804 -0.120668 0)
(0.0365142 -0.135047 0)