/*--------------------------------*- C++ -*----------------------------------*\
  =========                 |
  \\      /  F ield         | OpenFOAM: The Open Source CFD Toolbox
   \\    /   O peration     | Website:  https://openfoam.org
    \\  /    A nd           | Version:  12
     \\/     M anipulation  |
\*---------------------------------------------------------------------------*/
FoamFile
{
    format      ascii;
    class       volScalarField;
    location    "3";
    object      epsilon;
}
// * * * * * * * * * * * * * * * * * * * * * * * * * * * * * * * * * * * * * //

dimensions      [0 2 -3 0 0 0 0];

internalField   nonuniform List<scalar> 
1600
(
1.91362e-05
8.28561e-05
0.000175998
0.000231799
0.000263172
0.000287266
0.000318875
0.000347709
0.000369578
0.000410124
0.000512741
0.000716433
0.000936846
0.00110709
0.00131949
0.00157226
0.00185249
0.00212332
0.00242165
0.00272329
0.00305908
0.00341748
0.00382547
0.00428773
0.00484584
0.0054508
0.00600442
0.00652887
0.00694562
0.00718853
0.00728163
0.00708248
0.00639073
0.0052914
0.00381855
0.00225299
0.00103337
0.000416628
0.000131352
2.67493e-05
8.89356e-05
9.93156e-05
0.000134163
0.000168731
0.000206655
0.000265785
0.000361794
0.000504832
0.000704516
0.000980917
0.0014716
0.00231021
0.00273857
0.00285262
0.00287447
0.00285951
0.00286015
0.00285841
0.00289707
0.00295339
0.00305436
0.00318081
0.00332542
0.00349928
0.00370827
0.00395771
0.00423561
0.00454099
0.0048486
0.00509468
0.00520873
0.00522235
0.00491114
0.00425742
0.00314674
0.00189725
0.00083735
0.000359604
0.000129143
6.45093e-05
0.000225225
0.000211898
0.000245478
0.000304974
0.000406939
0.000589177
0.000911236
0.00146358
0.00227181
0.00293494
0.00315091
0.00306384
0.0028045
0.00267913
0.00255321
0.00241627
0.00232746
0.00226951
0.00224605
0.00224128
0.00227169
0.00232301
0.00241842
0.00253736
0.00267971
0.00284738
0.0030422
0.00326534
0.00351731
0.00379575
0.00407588
0.00426302
0.00432847
0.00409833
0.0035458
0.00241871
0.000925789
0.000284171
0.000102288
6.15996e-05
0.000457336
0.000384076
0.000450261
0.000588245
0.000843406
0.00130021
0.00201874
0.00281154
0.00315657
0.00318358
0.0029447
0.00265103
0.00230658
0.00207672
0.00191554
0.00183571
0.00179397
0.00177922
0.00177914
0.00181316
0.0018615
0.00192771
0.00200862
0.00210248
0.00221225
0.00233759
0.0024824
0.00264816
0.00283521
0.00304089
0.00326368
0.00348589
0.00371136
0.00383591
0.00382848
0.00343737
0.00179705
0.000396995
9.77462e-05
5.24105e-05
0.000818312
0.000637302
0.000778071
0.00105014
0.00151529
0.00220137
0.00285805
0.00310727
0.00308448
0.00281468
0.00229174
0.00196837
0.00175038
0.00162542
0.00156366
0.00153911
0.00153399
0.00155441
0.00159334
0.00164639
0.00170769
0.00177709
0.00185361
0.00193883
0.00203555
0.00214675
0.00227671
0.00242835
0.00260208
0.00279234
0.00299754
0.00320172
0.00340448
0.00362684
0.00382739
0.00387901
0.00335412
0.00101849
0.000163812
5.94806e-05
0.00136374
0.000998275
0.00122732
0.00163503
0.00221796
0.00277664
0.00299069
0.00297736
0.00264218
0.00207458
0.00174784
0.00154859
0.0014437
0.00139745
0.00138337
0.00138664
0.00141939
0.00146202
0.00151522
0.00157353
0.00163701
0.00170526
0.00178009
0.00186361
0.0019591
0.0020705
0.00220254
0.00235896
0.00254197
0.00275017
0.00296102
0.00316397
0.00335287
0.00354087
0.00375907
0.00391167
0.00392287
0.00244712
0.000416774
9.63609e-05
0.00205644
0.00144902
0.00174477
0.00221415
0.00268972
0.00288604
0.00287797
0.00254813
0.00198126
0.00160804
0.00141961
0.00132165
0.00128092
0.00126998
0.00127691
0.00130626
0.0013453
0.00138863
0.0014362
0.00148661
0.00154115
0.00160138
0.00167014
0.00175089
0.0018482
0.00196753
0.00211495
0.0022957
0.00251235
0.00276161
0.00303579
0.00331384
0.00351781
0.00366729
0.00378661
0.00394613
0.00402018
0.00358227
0.00095986
0.000187435
0.00283296
0.00194417
0.00224928
0.00265573
0.00283933
0.00282498
0.00254206
0.00198055
0.00154986
0.00133664
0.00123465
0.00119121
0.00117881
0.00117986
0.00120098
0.00122857
0.00125812
0.00128875
0.00132104
0.00135607
0.00139601
0.00144355
0.00150214
0.00157599
0.0016705
0.00179239
0.00194964
0.00215077
0.00240294
0.00270789
0.0030552
0.00342619
0.00378773
0.00399927
0.00410879
0.00416138
0.00418589
0.00397091
0.00190639
0.000383969
0.00357461
0.00241971
0.00267175
0.00286161
0.00285923
0.00261829
0.00207887
0.00157261
0.00130094
0.00117511
0.0011202
0.00110063
0.00109677
0.0011037
0.00111968
0.0011344
0.00114842
0.00116234
0.00117787
0.00119718
0.00122291
0.00125792
0.00130561
0.00137014
0.00145705
0.00157375
0.00172989
0.00193734
0.00220894
0.00255494
0.00297593
0.00345074
0.00394272
0.0043292
0.0044995
0.00455462
0.00454941
0.00436316
0.00332656
0.00096995
0.0041975
0.00281242
0.00294319
0.00299209
0.00277484
0.00227964
0.00170308
0.0013228
0.00114707
0.00106876
0.00103645
0.00102526
0.0010227
0.00102458
0.00102715
0.00102758
0.00102652
0.00102603
0.00102821
0.00103559
0.00105076
0.00107608
0.00111432
0.00116915
0.0012457
0.00135131
0.00149645
0.00169537
0.00196607
0.00232802
0.00279569
0.00336544
0.00399498
0.00462425
0.00493254
0.00502775
0.00499489
0.00473136
0.0042135
0.00195982
0.00464747
0.00309694
0.00309223
0.00298671
0.00258709
0.00196586
0.00143388
0.00116489
0.00104325
0.000989383
0.000965769
0.000954929
0.000948039
0.000940724
0.000930945
0.000918524
0.000905706
0.000895212
0.000890276
0.000889451
0.000897572
0.000916257
0.000947163
0.000993301
0.00105907
0.00115121
0.00127999
0.00146062
0.00171443
0.00206871
0.00255255
0.0031848
0.00395036
0.00476695
0.00537491
0.00557977
0.0055806
0.00523177
0.00466834
0.0030356
0.00492266
0.00326509
0.00314213
0.00292938
0.00236391
0.0017016
0.00125922
0.00105638
0.000964857
0.000922781
0.00090228
0.000888537
0.000874528
0.000857624
0.000837696
0.000816289
0.000796115
0.000779524
0.000769763
0.00076618
0.000769194
0.000783458
0.000808891
0.000847848
0.000903938
0.000983005
0.00109445
0.00125307
0.00148136
0.00181144
0.00228429
0.00294081
0.00379793
0.00480625
0.00576173
0.00616955
0.00621402
0.00582405
0.00532164
0.00406838
0.00499602
0.00332675
0.00311743
0.0028064
0.00214896
0.00150088
0.0011383
0.000975422
0.000901031
0.000865261
0.000844453
0.000825847
0.000804658
0.000779956
0.000752938
0.000725949
0.000701565
0.000681787
0.000669397
0.000664431
0.000664515
0.000675598
0.000696944
0.000730226
0.000778316
0.000846095
0.000941763
0.00107888
0.00127937
0.00157734
0.0020219
0.0026737
0.00358421
0.00474641
0.00602442
0.00677943
0.00693584
0.00647849
0.00575881
0.00499243
0.00495019
0.00331343
0.00304555
0.00265238
0.00196178
0.00135372
0.00104932
0.000911498
0.000847237
0.000814759
0.000791709
0.000768143
0.000741049
0.000710776
0.000679317
0.00064916
0.000622583
0.000601284
0.000587214
0.000580968
0.000579994
0.000588497
0.000606739
0.000635663
0.000677495
0.000736194
0.000818673
0.00093685
0.00111099
0.00137475
0.0017814
0.00240668
0.00333558
0.00461204
0.00614344
0.0073583
0.00771588
0.00725605
0.00640454
0.00592278
0.00482625
0.00326427
0.00292349
0.00249376
0.00180545
0.00124813
0.000981207
0.000859456
0.000801773
0.000770161
0.000744391
0.000716643
0.000685223
0.000651354
0.000617318
0.000585476
0.000557803
0.000535708
0.000520487
0.000513297
0.000511661
0.000518215
0.000534063
0.000559717
0.000596874
0.000648673
0.000720782
0.000823356
0.000974441
0.00120569
0.00157104
0.00215581
0.00307404
0.0044254
0.00617988
0.00788786
0.00853376
0.00808235
0.00704135
0.00680942
0.00459422
0.00316474
0.00278318
0.00234096
0.00168078
0.0011708
0.000928208
0.000816682
0.000762978
0.000731043
0.000702816
0.000671933
0.000637662
0.000601683
0.000566285
0.000533644
0.000505473
0.000482951
0.00046689
0.000458903
0.000456699
0.000461747
0.000475716
0.000498949
0.000532759
0.000579598
0.000643993
0.000734372
0.000866373
0.00106878
0.00139368
0.00193102
0.00281764
0.00420768
0.00614934
0.00832953
0.00937435
0.0090637
0.00776351
0.00771978
0.00429232
0.00304169
0.00263741
0.00220113
0.00158421
0.00111376
0.000886933
0.000781482
0.000729844
0.000697117
0.000666969
0.00063401
0.000598107
0.000561079
0.000525137
0.000492268
0.000463966
0.000441236
0.000424712
0.000415929
0.000413181
0.000417023
0.000429471
0.000450895
0.000482392
0.000525885
0.000584896
0.000666228
0.00078311
0.000961052
0.00124867
0.00173608
0.00257563
0.003972
0.00606411
0.0086483
0.0102156
0.0101107
0.00851888
0.0086151
0.00395365
0.00291351
0.00249608
0.00207761
0.0015113
0.00107285
0.000855217
0.000752677
0.000701657
0.000668008
0.00063655
0.000602472
0.000565894
0.000528619
0.000492745
0.000460087
0.000431974
0.000409282
0.000392553
0.000383056
0.00037979
0.000382656
0.00039382
0.000413837
0.000443771
0.000485196
0.000540777
0.000615813
0.000721234
0.000879228
0.00113405
0.00157281
0.00235609
0.00373107
0.00593341
0.00887132
0.0110676
0.0112453
0.00939774
0.00954071
0.00357696
0.00278149
0.00236398
0.00197091
0.00145708
0.00104676
0.000832745
0.00072981
0.000677949
0.000643301
0.000611092
0.000576695
0.00054021
0.000503338
0.000468041
0.000435987
0.000408382
0.000386007
0.000369334
0.000359286
0.00035553
0.000357622
0.000367661
0.000386514
0.000415399
0.000455745
0.0005095
0.000580559
0.000677711
0.000819981
0.00104687
0.00144039
0.00216311
0.00349464
0.00576412
0.00900798
0.0118876
0.0124333
0.0103533
0.0104624
0.00320653
0.00266264
0.00224637
0.00188107
0.00141789
0.00103153
0.000816723
0.000712347
0.0006584
0.00062258
0.000590049
0.000555972
0.000520214
0.000484296
0.000450027
0.000418947
0.000392168
0.000370397
0.00035405
0.000343699
0.000339479
0.000340959
0.000349979
0.000367811
0.000395982
0.000436013
0.000489534
0.000559125
0.000650893
0.000780241
0.000983994
0.0013368
0.00199851
0.00327114
0.00557148
0.00907304
0.0126634
0.0137013
0.0114303
0.0114127
0.00290555
0.00255307
0.00214516
0.00180748
0.00139237
0.00103178
0.000813443
0.00070011
0.000642974
0.000605617
0.000572933
0.000539615
0.000505091
0.000470595
0.000437752
0.000407984
0.000382329
0.000361425
0.000345631
0.000335278
0.000330668
0.000331918
0.000340188
0.000357272
0.000385158
0.000425532
0.000479703
0.000549245
0.000638472
0.000759411
0.000942269
0.00125934
0.00186171
0.00306428
0.00536508
0.00909478
0.0133844
0.0150289
0.0126082
0.0123625
0.00263927
0.00245963
0.00205771
0.00174752
0.001377
0.00103767
0.000817093
0.0006971
0.000631854
0.000592246
0.000559431
0.000527101
0.000494137
0.000461402
0.000430303
0.000402168
0.000377944
0.000358126
0.000342956
0.000332751
0.000327916
0.000328953
0.000336524
0.000353151
0.000380988
0.000421754
0.000476644
0.000546687
0.000635113
0.000751965
0.000920732
0.00120499
0.00175156
0.00287677
0.00515021
0.00908895
0.0140372
0.0164082
0.0139321
0.0133327
0.00239285
0.00236822
0.0019946
0.00170123
0.00137192
0.00105254
0.000828153
0.000700086
0.000628286
0.000582853
0.000548983
0.000517653
0.000486482
0.000455833
0.00042693
0.00040086
0.00037802
0.000358926
0.000344247
0.000334357
0.000329746
0.000330714
0.000337528
0.00035355
0.000381639
0.00042357
0.00048051
0.000552641
0.000641299
0.000753872
0.000913236
0.00117029
0.00166587
0.00270862
0.00492433
0.00903184
0.0146029
0.0178194
0.0153976
0.0142998
0.00215862
0.00228203
0.00194689
0.00166734
0.00137458
0.00107823
0.000851392
0.000710238
0.000630716
0.000580971
0.00054367
0.000511881
0.000482229
0.000453895
0.000427067
0.000402175
0.000380409
0.00036247
0.000348688
0.000339393
0.000335265
0.000336434
0.000343122
0.00035921
0.0003883
0.000432097
0.000491724
0.000566738
0.000657061
0.0007676
0.000916669
0.0011539
0.00160143
0.00256102
0.00469156
0.0089205
0.0150954
0.0192336
0.0170327
0.0152747
0.00193254
0.00219948
0.00190799
0.00164316
0.00138208
0.00111179
0.000886537
0.000732463
0.000639984
0.000583944
0.000544314
0.000511813
0.000482416
0.00045485
0.000429126
0.000405942
0.000385878
0.000369221
0.000356236
0.000347418
0.000343845
0.000345355
0.000352432
0.000369302
0.000400024
0.000446187
0.000508836
0.000587077
0.000679762
0.000789783
0.00093186
0.00114939
0.00155378
0.00243145
0.00445588
0.00874473
0.0155007
0.0206645
0.0188043
0.0162385
0.00171407
0.00211487
0.00187354
0.00162584
0.00139458
0.0011518
0.000933176
0.000769438
0.00066124
0.000594277
0.000549469
0.000514883
0.000485194
0.000458341
0.000434059
0.000412545
0.000393826
0.000378213
0.000366014
0.000357771
0.000355127
0.000357211
0.000365225
0.000383719
0.000416661
0.000465524
0.000531221
0.000612557
0.000707704
0.000818006
0.000954863
0.0011547
0.00152012
0.00231758
0.00421873
0.00849924
0.0157683
0.0220788
0.0207269
0.0171914
0.00150519
0.00202146
0.00183717
0.00161209
0.00140833
0.00119535
0.000990017
0.000821526
0.000699948
0.00061787
0.000563652
0.000524519
0.000493073
0.000466135
0.000442707
0.000422135
0.000404416
0.000389707
0.000378287
0.000370824
0.000369535
0.000372457
0.000381983
0.000402978
0.000438523
0.000490074
0.000558362
0.000642087
0.000739203
0.00085012
0.000983504
0.00116957
0.00149845
0.00221748
0.00397996
0.00818582
0.0158825
0.0234422
0.0227797
0.0181172
0.00131066
0.00191304
0.00179416
0.00159588
0.00142039
0.00123845
0.00105385
0.000888449
0.000757437
0.000661802
0.000594243
0.000546128
0.000510089
0.000481306
0.000457126
0.000436562
0.00041924
0.000405145
0.000394439
0.000388162
0.000388299
0.000392465
0.000404106
0.000428195
0.000466194
0.000519842
0.000589654
0.000674462
0.000772524
0.000883967
0.0010153
0.00119077
0.00148825
0.00213038
0.00374032
0.00780345
0.015893
0.0247101
0.0249479
0.0190125
0.00113688
0.00178464
0.00173273
0.00157704
0.00142723
0.00127721
0.00111998
0.000967338
0.000834522
0.000728614
0.000648429
0.000588939
0.000544373
0.000510017
0.0004826
0.000460321
0.000442266
0.000428141
0.000417813
0.000412943
0.0004141
0.000419958
0.000434086
0.000460546
0.000500218
0.000554663
0.000624295
0.000708413
0.000806075
0.000917755
0.00104846
0.00121664
0.00148602
0.00205583
0.00350496
0.00735251
0.0156187
0.0257918
0.0271794
0.019865
0.000990448
0.00163458
0.00164727
0.0015501
0.00142686
0.00131014
0.00118369
0.00105286
0.000928334
0.000819522
0.000730143
0.000659406
0.000604338
0.000561512
0.000527941
0.000501489
0.000480803
0.00046527
0.000454349
0.000449935
0.000451682
0.000458584
0.000474185
0.000501424
0.000540972
0.000594104
0.000661401
0.000742941
0.000838933
0.000950689
0.00108242
0.00124726
0.00149361
0.0019985
0.00328393
0.00685749
0.0151261
0.0266131
0.0294498
0.0206742
0.000875401
0.00146312
0.00155143
0.00150301
0.00141861
0.00133392
0.0012409
0.00113851
0.00103272
0.000931144
0.000839968
0.000762034
0.000697561
0.000645292
0.000603419
0.000570237
0.000544393
0.000525081
0.000511563
0.000504778
0.00050587
0.000511898
0.000526133
0.000551546
0.00058831
0.000637666
0.000700629
0.000778224
0.000871927
0.000984179
0.00111897
0.00128557
0.0015185
0.00197322
0.00309195
0.00634529
0.0144664
0.0271865
0.031639
0.0214325
0.000791578
0.00128346
0.00143836
0.00143055
0.00139543
0.00134427
0.00128858
0.00122018
0.00114081
0.00105638
0.000972741
0.00089476
0.000825257
0.000765338
0.000714944
0.00067343
0.000639975
0.000613913
0.000594715
0.000582131
0.000578198
0.000581157
0.000590783
0.000610879
0.000642335
0.000686173
0.000743983
0.000817684
0.000909869
0.00102411
0.00116506
0.00133986
0.0015709
0.00197858
0.00297708
0.00585475
0.0136302
0.0275183
0.0336509
0.0221549
0.00073276
0.00110509
0.00130009
0.00134247
0.0013507
0.00134334
0.00132737
0.00129633
0.00124893
0.00118836
0.00112045
0.00105007
0.000981518
0.000917712
0.000860319
0.000810085
0.000767175
0.000731523
0.000703057
0.000681776
0.000668188
0.000664532
0.000668776
0.000681369
0.000706728
0.000745748
0.00080019
0.000872632
0.000966544
0.00108673
0.00123909
0.00143111
0.00167671
0.00206283
0.00295726
0.00558453
0.0128419
0.0276791
0.0353028
0.0228508
0.000703946
0.00094149
0.00114146
0.00123466
0.00129385
0.00133525
0.0013586
0.0013638
0.00135183
0.00132281
0.00127573
0.00121837
0.00115559
0.00109142
0.001029
0.000970549
0.000917557
0.000871009
0.000831786
0.000800637
0.000778463
0.000766332
0.000767863
0.000776998
0.000798838
0.000838612
0.000896082
0.00097456
0.00107844
0.00121411
0.00138923
0.00161517
0.00190285
0.0023123
0.00317111
0.00555197
0.0124918
0.0277715
0.0363416
0.0235989
0.00072789
0.000791047
0.00097624
0.00111331
0.00122665
0.00132964
0.00139819
0.00144111
0.00146019
0.00145481
0.00143412
0.00139274
0.00133807
0.00127651
0.00121243
0.0011495
0.00109059
0.00103777
0.00099365
0.000960044
0.000938077
0.000929081
0.000933645
0.000949583
0.000983237
0.00103703
0.00111262
0.00121523
0.00135001
0.00152596
0.00175311
0.00205398
0.00244062
0.00297992
0.0039279
0.00627197
0.0127339
0.0282623
0.036825
0.0243636
0.000806547
0.000662509
0.000812716
0.00101024
0.00120507
0.0013606
0.00148309
0.0015703
0.00162434
0.00164754
0.0016452
0.00162766
0.00159041
0.00154258
0.0014908
0.00143922
0.00139148
0.0013508
0.00132033
0.00130103
0.00130164
0.00131355
0.00134448
0.00140074
0.00148166
0.00159111
0.00173443
0.00191669
0.00214541
0.00243666
0.00280583
0.00330327
0.00392816
0.00484508
0.00613212
0.00884863
0.015121
0.0300088
0.037037
0.0247044
0.000945854
0.000632142
0.000816517
0.00107379
0.00133606
0.00157397
0.00178122
0.00194628
0.00206886
0.0021532
0.00220411
0.00223444
0.00224653
0.00224806
0.00224667
0.00224772
0.00225602
0.00227735
0.00231976
0.00238286
0.0024771
0.00260234
0.00276511
0.00297013
0.00322831
0.00354202
0.00392416
0.00438375
0.00493246
0.00560696
0.00639251
0.00739945
0.00856391
0.0103084
0.0123452
0.0159394
0.0217935
0.0343412
0.0376329
0.0248292
0.00128394
0.000779628
0.00119316
0.00174197
0.00228143
0.00278589
0.00324483
0.00364633
0.0039909
0.00428391
0.00453682
0.00476177
0.00497429
0.00518249
0.00540226
0.00563873
0.00590985
0.00621732
0.00658337
0.00700277
0.00750214
0.00807216
0.00874555
0.00950463
0.0103912
0.0113818
0.0125247
0.0137958
0.0152381
0.016862
0.0186496
0.020781
0.0229166
0.0260762
0.0293151
0.034148
0.0383601
0.0432888
0.0402325
0.0242198
0.00212836
0.00175716
0.00386105
0.00623843
0.00823148
0.0099617
0.0115097
0.0128916
0.0141337
0.0152447
0.0162766
0.0172414
0.0182039
0.0191602
0.0201807
0.0212407
0.022421
0.0236715
0.0250876
0.0265916
0.0283001
0.0301037
0.0321428
0.0342755
0.0366633
0.0391296
0.0418566
0.0446348
0.0476659
0.0507003
0.0539731
0.0571647
0.0607594
0.0638745
0.0665747
0.0658157
0.0619653
0.0520323
0.0421058
0.0221741
0.0014338
0.00251289
0.00391912
0.00546714
0.0069485
0.00828359
0.0094752
0.0105321
0.0114678
0.0122892
0.0130054
0.0136276
0.014165
0.0146331
0.0150405
0.0154107
0.0157387
0.0160584
0.0163497
0.0166607
0.0169513
0.0172883
0.0176083
0.0179991
0.0183747
0.0188397
0.0192937
0.0198429
0.0203926
0.0210151
0.0216567
0.0222947
0.0229742
0.0235661
0.024294
0.0249665
0.0254225
0.0251762
0.0240656
0.0198964
)
;

boundaryField
{
    movingWall
    {
        type            epsilonWallFunction;
        value           nonuniform List<scalar> 
40
(
0.0014338
0.00251289
0.00391912
0.00546714
0.0069485
0.00828359
0.0094752
0.0105321
0.0114678
0.0122892
0.0130054
0.0136276
0.014165
0.0146331
0.0150405
0.0154107
0.0157387
0.0160584
0.0163497
0.0166607
0.0169513
0.0172883
0.0176083
0.0179991
0.0183747
0.0188397
0.0192937
0.0198429
0.0203926
0.0210151
0.0216567
0.0222947
0.0229742
0.0235661
0.024294
0.0249665
0.0254225
0.0251762
0.0240656
0.0198964
)
;
    }
    fixedWalls
    {
        type            epsilonWallFunction;
        value           nonuniform List<scalar> 
120
(
1.91362e-05
8.89356e-05
0.000225225
0.000457336
0.000818312
0.00136374
0.00205644
0.00283296
0.00357461
0.0041975
0.00464747
0.00492266
0.00499602
0.00495019
0.00482625
0.00459422
0.00429232
0.00395365
0.00357696
0.00320653
0.00290555
0.00263927
0.00239285
0.00215862
0.00193254
0.00171407
0.00150519
0.00131066
0.00113688
0.000990448
0.000875401
0.000791578
0.00073276
0.000703946
0.00072789
0.000806547
0.000945854
0.00128394
0.00212836
0.0014338
2.67493e-05
6.45093e-05
6.15996e-05
5.24105e-05
5.94806e-05
9.63609e-05
0.000187435
0.000383969
0.00096995
0.00195982
0.0030356
0.00406838
0.00499243
0.00592278
0.00680942
0.00771978
0.0086151
0.00954071
0.0104624
0.0114127
0.0123625
0.0133327
0.0142998
0.0152747
0.0162385
0.0171914
0.0181172
0.0190125
0.019865
0.0206742
0.0214325
0.0221549
0.0228508
0.0235989
0.0243636
0.0247044
0.0248292
0.0242198
0.0221741
0.0198964
1.91362e-05
8.28561e-05
0.000175998
0.000231799
0.000263172
0.000287266
0.000318875
0.000347709
0.000369578
0.000410124
0.000512741
0.000716433
0.000936846
0.00110709
0.00131949
0.00157226
0.00185249
0.00212332
0.00242165
0.00272329
0.00305908
0.00341748
0.00382547
0.00428773
0.00484584
0.0054508
0.00600442
0.00652887
0.00694562
0.00718853
0.00728163
0.00708248
0.00639073
0.0052914
0.00381855
0.00225299
0.00103337
0.000416628
0.000131352
2.67493e-05
)
;
    }
    frontAndBack
    {
        type            empty;
    }
}


// ************************************************************************* //
