/*--------------------------------*- C++ -*----------------------------------*\
  =========                 |
  \\      /  F ield         | OpenFOAM: The Open Source CFD Toolbox
   \\    /   O peration     | Website:  https://openfoam.org
    \\  /    A nd           | Version:  12
     \\/     M anipulation  |
\*---------------------------------------------------------------------------*/
FoamFile
{
    format      ascii;
    class       volScalarField;
    location    "3";
    object      k;
}
// * * * * * * * * * * * * * * * * * * * * * * * * * * * * * * * * * * * * * //

dimensions      [0 2 -2 0 0 0 0];

internalField   nonuniform List<scalar> 
1600
(
1.49537e-06
6.47096e-06
1.37433e-05
1.80831e-05
2.05069e-05
2.23704e-05
2.48366e-05
2.70991e-05
2.88457e-05
3.2053e-05
4.01292e-05
5.60596e-05
7.3246e-05
8.65242e-05
0.000103108
0.000122846
0.00014472
0.000165876
0.000189178
0.000212745
0.000238985
0.00026699
0.000298879
0.000335005
0.000378627
0.000425907
0.000469174
0.000510146
0.00054272
0.000561696
0.000568967
0.000553378
0.000499295
0.000413343
0.000298246
0.000175943
8.07023e-05
3.25398e-05
1.0262e-05
2.09078e-06
6.94735e-06
4.41768e-05
8.84869e-05
0.000114228
0.000131787
0.000148934
0.000168488
0.000188501
0.000208493
0.000238091
0.000302251
0.000404307
0.0004855
0.000523066
0.000559409
0.000593936
0.000638343
0.000674481
0.000719059
0.000760747
0.000808882
0.000857252
0.000909185
0.00096012
0.00100933
0.00105839
0.00111158
0.00116356
0.00120987
0.00123289
0.00124019
0.00120146
0.00110588
0.000949597
0.000715472
0.000461846
0.000220851
9.38465e-05
3.36915e-05
5.03795e-06
1.75991e-05
0.000101326
0.000175863
0.000221841
0.000264182
0.000319052
0.000396294
0.000495812
0.000610599
0.00070038
0.000731127
0.000726165
0.000706755
0.000701225
0.000721075
0.00074477
0.000770484
0.000797799
0.000828883
0.000860498
0.000894807
0.00092918
0.000965122
0.00100168
0.00103912
0.0010779
0.00111712
0.00115449
0.00118755
0.00120749
0.00121481
0.00119861
0.00112422
0.00100123
0.000796129
0.000535701
0.000234161
9.25341e-05
3.45662e-05
4.80568e-06
3.57621e-05
0.000184805
0.000289285
0.000360502
0.000438345
0.000544008
0.000676863
0.000792932
0.000838069
0.000830161
0.00077689
0.000753586
0.000745432
0.000746464
0.000768037
0.000785201
0.000810326
0.000835333
0.000862368
0.000888659
0.000915974
0.000942465
0.000968958
0.000994743
0.00102107
0.00104721
0.00107283
0.00109669
0.00111724
0.00112972
0.00113458
0.00112753
0.00109008
0.0010201
0.000901302
0.000687122
0.000332591
0.000101423
3.14084e-05
4.08403e-06
6.40266e-05
0.000298935
0.00043583
0.000534147
0.000643438
0.000772997
0.00087159
0.000903013
0.000864315
0.000810288
0.00076993
0.000756034
0.000753991
0.000766939
0.000788845
0.000811124
0.000838671
0.000865239
0.000893322
0.000920187
0.000946385
0.000970625
0.000993614
0.00101554
0.00103632
0.00105658
0.00107634
0.00109525
0.00111255
0.00112219
0.00112573
0.00112055
0.0010928
0.00104913
0.000977694
0.000850519
0.000585085
0.000184988
3.96231e-05
4.63652e-06
0.00010673
0.000436375
0.000605016
0.000718889
0.00083006
0.000911895
0.000936929
0.000896016
0.000831549
0.000778394
0.00075864
0.000754437
0.000762397
0.000785402
0.000811234
0.000839858
0.000870477
0.000900442
0.000929941
0.000957503
0.000983547
0.00100771
0.00103085
0.0010535
0.00107661
0.00110136
0.00112847
0.00115725
0.00118432
0.0012031
0.00121055
0.00121127
0.00118648
0.00112752
0.00103832
0.000923809
0.000747723
0.000346069
7.19303e-05
7.51774e-06
0.000161007
0.000585175
0.000776304
0.000883428
0.000948728
0.000969167
0.000928216
0.000855697
0.000786487
0.000758803
0.000751554
0.000756515
0.000777311
0.000805728
0.000835406
0.000866442
0.000896917
0.000925757
0.000952764
0.000977678
0.00100104
0.00102318
0.0010448
0.00106664
0.0010903
0.00111731
0.00114915
0.00118721
0.00123104
0.00127618
0.00130432
0.00131272
0.00131037
0.00127001
0.00117743
0.00102764
0.000831482
0.000556498
0.000133627
1.46323e-05
0.000221848
0.000734314
0.000927207
0.000996633
0.00101139
0.000968149
0.000892278
0.000801979
0.000761323
0.000748445
0.000747768
0.000764505
0.000793494
0.000822801
0.000852271
0.000880614
0.000906639
0.000930835
0.000953288
0.000974482
0.000994175
0.00101317
0.00103267
0.00105409
0.00107899
0.00110896
0.00114565
0.00119021
0.00124313
0.00130422
0.00136974
0.00140869
0.00141775
0.00140549
0.00133964
0.00119845
0.000971767
0.000656612
0.000211711
2.99846e-05
0.000279891
0.000863735
0.00104229
0.00107831
0.00104076
0.000948173
0.000837232
0.000771477
0.00074653
0.000741156
0.000749989
0.000775554
0.000804031
0.000831001
0.000856507
0.000880362
0.000902657
0.000922069
0.000939059
0.000953941
0.000968462
0.000983932
0.00100139
0.00102201
0.00104703
0.00107834
0.0011182
0.00116891
0.00123202
0.00130679
0.00138924
0.00147571
0.00151871
0.00152679
0.00149303
0.00137374
0.00115478
0.00083845
0.000364697
7.57718e-05
0.000328618
0.000962033
0.00111959
0.00112808
0.00103484
0.000906547
0.000799828
0.000752791
0.000738123
0.000737376
0.000754875
0.000781291
0.000806503
0.000830398
0.000852723
0.000871638
0.00088651
0.000898291
0.000908933
0.000919758
0.00093165
0.000945327
0.000961576
0.000981313
0.00100578
0.00103685
0.00107708
0.00112966
0.00119789
0.00128391
0.0013863
0.00149673
0.00159633
0.00163415
0.00163502
0.0015474
0.00133087
0.000986779
0.000529536
0.00015314
0.00036376
0.00102941
0.00117158
0.0011547
0.00101748
0.000866582
0.000776276
0.000740458
0.00073129
0.000735628
0.000756696
0.000781119
0.000804256
0.000824351
0.000840028
0.000850941
0.000859062
0.000866277
0.00087347
0.000881767
0.000891863
0.00090438
0.000919894
0.00093908
0.000962954
0.000993134
0.00103212
0.00108348
0.00115174
0.00124149
0.00135522
0.00148946
0.00162936
0.00173253
0.0017587
0.00171931
0.00153
0.00117207
0.000646849
0.000237215
0.000385246
0.00106839
0.00119928
0.00115333
0.000991465
0.000834556
0.000758991
0.000731022
0.000725185
0.000734004
0.000755734
0.000778073
0.000796744
0.000810044
0.000818765
0.000824466
0.000828412
0.000832136
0.000836666
0.000843007
0.000851797
0.000863527
0.000878659
0.000897669
0.000921302
0.000950844
0.000988491
0.00103773
0.00110363
0.00119254
0.00131059
0.00145993
0.00163243
0.00179577
0.00186901
0.00187083
0.00171395
0.00135117
0.000804156
0.000317923
0.000390912
0.00107986
0.00120229
0.00114444
0.000962292
0.000811949
0.000745672
0.000723041
0.000719603
0.000731462
0.000752186
0.000770216
0.00078299
0.000791005
0.000794843
0.000796407
0.000796985
0.000797811
0.000799969
0.000804456
0.000811971
0.000822926
0.000837753
0.00085681
0.000880622
0.000910141
0.000947137
0.00099469
0.00105775
0.00114349
0.00126065
0.00141646
0.00160977
0.00182014
0.00197226
0.00201005
0.00190082
0.00153414
0.00092735
0.000390125
0.000387313
0.00107533
0.00119436
0.00112534
0.000935676
0.00079458
0.000734642
0.000715657
0.000713901
0.000726851
0.000744837
0.000758781
0.000766798
0.00076997
0.000770349
0.000768486
0.000765849
0.000764224
0.000763946
0.000766318
0.000772264
0.000782205
0.000796587
0.000815747
0.000840065
0.000870204
0.000907479
0.000954401
0.00101541
0.00109772
0.0012116
0.00136872
0.00157589
0.00182305
0.00204897
0.00213439
0.00207756
0.00171871
0.00107137
0.00046282
0.0003776
0.00106109
0.00117481
0.00110019
0.000912992
0.000780395
0.000725029
0.000708478
0.000707791
0.000720482
0.000735592
0.000745381
0.000749194
0.000749508
0.000746516
0.000741493
0.000735925
0.000731238
0.000728989
0.000728902
0.000732851
0.000741414
0.000755091
0.00077428
0.000799306
0.000830599
0.000869035
0.000916487
0.000976663
0.00105622
0.00116588
0.00132012
0.00153221
0.00180095
0.00209074
0.00224711
0.0022452
0.00190124
0.00120279
0.000532093
0.000359426
0.00103314
0.00114451
0.0010724
0.000894001
0.000768753
0.000716391
0.000701296
0.000701174
0.000712774
0.000725096
0.000731092
0.000732359
0.000729802
0.000723859
0.000715994
0.000707638
0.00070012
0.000694982
0.000692976
0.000694497
0.0007013
0.000713961
0.000733012
0.000758811
0.000791636
0.000831957
0.00088099
0.000941592
0.00101958
0.00112543
0.00127533
0.00148845
0.00177405
0.0021054
0.00235101
0.00239719
0.00208427
0.00134499
0.000603221
0.000335828
0.000998857
0.00110938
0.00104397
0.000878403
0.000759257
0.000708552
0.000694064
0.000694131
0.000704316
0.000713641
0.000717066
0.000716363
0.000711253
0.000702827
0.000692477
0.000681589
0.000671481
0.000663408
0.000659167
0.000658466
0.000663203
0.000674543
0.000693212
0.000719713
0.000754262
0.000796983
0.00084843
0.000910543
0.000988089
0.00109076
0.00123531
0.00144521
0.00174018
0.00210755
0.00243395
0.00253886
0.00226281
0.00148159
0.000673167
0.000309302
0.000960971
0.00107207
0.0010163
0.000866041
0.000751981
0.000701522
0.000686764
0.000686633
0.000695116
0.000701964
0.000703787
0.000701207
0.000694133
0.000683741
0.000671374
0.000658372
0.000646026
0.00063558
0.000628715
0.000626186
0.000628761
0.000638549
0.000656554
0.000683548
0.000719816
0.000765218
0.00081967
0.000884159
0.000962242
0.00106254
0.00120154
0.00140537
0.0017029
0.00209602
0.00249691
0.00266754
0.00244122
0.00162855
0.000745482
0.000279874
0.000922413
0.0010343
0.000989969
0.000856418
0.000746627
0.000695356
0.000679454
0.000678708
0.000685412
0.000690398
0.000691057
0.00068703
0.000678577
0.000666811
0.000653017
0.000638489
0.000624483
0.000612236
0.00060313
0.000598877
0.000599517
0.000607666
0.000624746
0.000651933
0.000689737
0.000737873
0.000795662
0.000863173
0.000942543
0.00104121
0.0011748
0.00137075
0.00166563
0.00207678
0.00254075
0.00278524
0.00261466
0.00177479
0.000817486
0.00025085
0.000881901
0.0009984
0.000965882
0.000849021
0.000744262
0.000690397
0.000672215
0.000670395
0.000675362
0.000679017
0.000678773
0.000673837
0.000664604
0.000652101
0.000637547
0.00062218
0.000607209
0.000593833
0.000583285
0.000577381
0.000576561
0.000583148
0.00059913
0.000626213
0.000665263
0.000716003
0.000777177
0.000848181
0.000930012
0.00102768
0.00115536
0.00134225
0.00163018
0.00205308
0.00256499
0.00289314
0.00278672
0.00193
0.000891724
0.000227285
0.000837945
0.000962754
0.000943789
0.000843962
0.000744726
0.00068758
0.000665836
0.00066198
0.000665091
0.000667773
0.000666874
0.000661551
0.000652115
0.000639506
0.000624862
0.000609351
0.000594121
0.00058032
0.00056914
0.000562056
0.000560201
0.000565477
0.000580339
0.000607143
0.000647169
0.000700381
0.000765359
0.000840191
0.000924383
0.00102163
0.00114402
0.0013202
0.00159707
0.00202362
0.00257532
0.00299255
0.00295461
0.00208821
0.000965919
0.000206449
0.000792772
0.000928017
0.000922106
0.000841583
0.000747068
0.000687811
0.000660717
0.000653956
0.00065499
0.000656562
0.000655276
0.000650102
0.000640926
0.000628765
0.000614627
0.000599586
0.000584724
0.000571124
0.000559933
0.000552463
0.000550155
0.000554512
0.000568401
0.000595221
0.000636339
0.000691956
0.000760161
0.000837535
0.000923291
0.00102043
0.00113955
0.0013044
0.00156758
0.0019913
0.00257692
0.00308416
0.00311966
0.00225485
0.0010417
0.000187183
0.000747652
0.000894199
0.000901547
0.000840952
0.00075253
0.000690111
0.000658729
0.000647113
0.000645504
0.000645692
0.000644133
0.0006393
0.000630778
0.000619496
0.000606327
0.00059225
0.000578261
0.000565365
0.000554648
0.000547406
0.000545317
0.000549334
0.00056266
0.000589725
0.000631867
0.000689003
0.000759432
0.000840219
0.000928598
0.00102547
0.00113955
0.00129457
0.00154165
0.0019559
0.00256509
0.00316251
0.00328044
0.00242702
0.00111724
0.00016888
0.000702931
0.000861018
0.000882575
0.000840687
0.000760667
0.000695973
0.000659829
0.000642851
0.000637294
0.000635725
0.000633591
0.000629012
0.000621398
0.000611284
0.000599422
0.000586667
0.000573908
0.000562067
0.000552184
0.000545561
0.00054404
0.00054801
0.000561119
0.000588463
0.000631554
0.000690966
0.000764696
0.000848798
0.000939489
0.00103621
0.00114581
0.00129017
0.00151899
0.00191853
0.00254373
0.00322459
0.0034363
0.00260695
0.00119338
0.00015122
0.000658583
0.000828158
0.000864484
0.000839217
0.000772613
0.00070724
0.000664436
0.00064318
0.000632409
0.000627499
0.000624111
0.000619529
0.000612758
0.000603909
0.000593515
0.000582277
0.00057097
0.000560434
0.000551676
0.000545992
0.000545428
0.000549842
0.000563568
0.000592123
0.00063694
0.000698578
0.000774976
0.00086177
0.000954326
0.00105071
0.0011558
0.00128895
0.00149843
0.00187858
0.00251273
0.00326852
0.00358491
0.00279365
0.00126864
0.000134152
0.000614528
0.000795151
0.000846556
0.000835435
0.000786823
0.000723526
0.000675093
0.000647088
0.000632815
0.000624138
0.000617808
0.000612147
0.000605615
0.000597763
0.000588752
0.00057905
0.000569291
0.000560189
0.000552564
0.000548265
0.000548828
0.000554456
0.000569809
0.000600288
0.000646998
0.000710635
0.000789085
0.000877799
0.000971566
0.00106726
0.00116777
0.00128943
0.00147873
0.00183498
0.00247039
0.00328956
0.00372406
0.00298748
0.00134305
0.000117824
0.000570705
0.000761519
0.000827939
0.00082896
0.000800522
0.000744162
0.000693745
0.0006577
0.000637481
0.000625717
0.00061757
0.000610149
0.000602773
0.000594999
0.000586726
0.000578116
0.000569449
0.000561315
0.000555029
0.000552612
0.000554363
0.000561837
0.000579787
0.000612512
0.000661163
0.000726311
0.000805883
0.000895407
0.00098943
0.00108388
0.00117976
0.00129008
0.00145852
0.00178658
0.00241475
0.00329564
0.00385029
0.00318626
0.00141533
0.000102601
0.000527319
0.000726766
0.000806847
0.000822759
0.000808915
0.000768512
0.000719742
0.000679502
0.000650602
0.000633258
0.000621611
0.000612534
0.000604277
0.00059614
0.000587897
0.000579627
0.000571669
0.000564695
0.000560053
0.000559757
0.000562919
0.000572774
0.000593982
0.000628931
0.000679077
0.000744786
0.000824115
0.000912957
0.00100597
0.00109845
0.00118929
0.00128897
0.00143635
0.00173229
0.00234027
0.00327473
0.00395788
0.0033882
0.00148523
8.89846e-05
0.000484995
0.000690985
0.000783063
0.000815638
0.000813029
0.000792382
0.000751658
0.000711494
0.000678031
0.000652419
0.000634937
0.000622201
0.000611726
0.000602381
0.000593671
0.000585522
0.000578238
0.000572418
0.000569966
0.000571145
0.00057642
0.00058918
0.000613187
0.000649731
0.000700322
0.000765094
0.000842371
0.00092869
0.00101915
0.00110799
0.00119363
0.00128395
0.00141093
0.00167229
0.00224754
0.00322021
0.00404156
0.00358835
0.00155178
7.74988e-05
0.00044504
0.00065525
0.000756708
0.00080482
0.000817137
0.000809894
0.00078672
0.000751954
0.000718494
0.000689399
0.000665282
0.000646282
0.000631447
0.000619443
0.000609229
0.0006005
0.000593442
0.000588589
0.000588163
0.000590485
0.000597583
0.000612843
0.000638237
0.000675008
0.000724266
0.000786066
0.000859139
0.000940892
0.00102612
0.00111155
0.00119326
0.00127371
0.00138063
0.00160605
0.00213837
0.00313008
0.0040932
0.00378519
0.00161494
6.84722e-05
0.000409133
0.000619689
0.000728574
0.000790331
0.000819009
0.000825624
0.000818026
0.000798037
0.000769874
0.000741571
0.00071545
0.000692615
0.000673117
0.000656744
0.000643321
0.000632603
0.000624582
0.000619177
0.000619029
0.000621686
0.000629262
0.000644931
0.000669625
0.000704348
0.000749898
0.000806378
0.000872996
0.000947582
0.0010276
0.00110836
0.00118471
0.0012564
0.00134454
0.00153468
0.0020171
0.00301231
0.00411657
0.00396699
0.00167412
6.19026e-05
0.000379056
0.000584772
0.000699738
0.000773339
0.000818698
0.00084238
0.000848782
0.000843227
0.000828427
0.00080599
0.000781884
0.000758254
0.000736362
0.00071684
0.000700036
0.000686129
0.000675329
0.000667683
0.000665054
0.000666705
0.0006726
0.000685457
0.000706689
0.000736642
0.000775959
0.000824887
0.000883128
0.00094944
0.0010219
0.00109643
0.00116765
0.00123225
0.00130419
0.00146048
0.00188908
0.0028662
0.00412262
0.0041276
0.0017305
5.73032e-05
0.000354193
0.000550113
0.000670114
0.00075552
0.000817025
0.000857896
0.000881756
0.000890908
0.000888095
0.000878462
0.000860827
0.000840039
0.000818311
0.000797128
0.000777473
0.000760013
0.000745283
0.000733673
0.000726005
0.000723631
0.000725779
0.000732897
0.000747737
0.000770549
0.000801679
0.000841511
0.000890093
0.000946875
0.00101032
0.00107777
0.00114423
0.00120448
0.00126717
0.0014004
0.00177601
0.00270809
0.00410291
0.00423236
0.00178481
5.50637e-05
0.000337637
0.000517199
0.000640964
0.000737999
0.000818332
0.000876045
0.000917718
0.00094393
0.00095588
0.000955352
0.000948827
0.000934225
0.000914611
0.000892923
0.000870707
0.00084917
0.000829305
0.000811916
0.000797881
0.000788162
0.000783849
0.000785501
0.000792139
0.000806426
0.000828876
0.000859463
0.000898383
0.000945766
0.00100152
0.00106371
0.00112827
0.00118941
0.00125137
0.00137663
0.00172741
0.00261084
0.00407568
0.004276
0.0018432
5.69617e-05
0.000318597
0.00048371
0.00061424
0.00073128
0.000827362
0.000905025
0.000965394
0.00100833
0.00103477
0.00104566
0.00104386
0.00103552
0.00101835
0.00099576
0.000970454
0.000944281
0.000918772
0.000895174
0.00087476
0.000858568
0.000847511
0.00084325
0.000845315
0.000852529
0.000867813
0.00089145
0.000923276
0.00096375
0.00101341
0.00107209
0.00113879
0.00120958
0.00128791
0.00141792
0.00174693
0.00258306
0.00406461
0.00427755
0.00190278
6.31528e-05
0.000312394
0.000467328
0.000611194
0.000741226
0.000853942
0.000949274
0.00102559
0.00108178
0.00111864
0.00113799
0.00113982
0.0011339
0.00111913
0.00109648
0.00106999
0.00104183
0.00101392
0.000987848
0.00096564
0.000948349
0.000936849
0.000932225
0.000934311
0.000941691
0.000957362
0.000982123
0.00101603
0.00106011
0.00111608
0.00118596
0.00127366
0.00137753
0.00151038
0.00168388
0.00203693
0.00278506
0.0041137
0.00419641
0.00192926
7.40952e-05
0.000323368
0.000482504
0.000639432
0.000788576
0.000921322
0.00103314
0.00112003
0.00118431
0.00122797
0.00125371
0.00126272
0.00126082
0.00125324
0.001238
0.00121907
0.00119914
0.00118021
0.00116428
0.00115237
0.00114632
0.00114795
0.00115524
0.00117169
0.00119897
0.00123658
0.00128633
0.00134954
0.00142796
0.00152551
0.00164174
0.00178649
0.00195573
0.0021803
0.00243092
0.00281982
0.00341521
0.0043348
0.00415493
0.00193891
0.000100632
0.000384582
0.000577008
0.000771325
0.000952789
0.00111324
0.0012491
0.00135748
0.00144176
0.00150516
0.00155152
0.00158395
0.00160563
0.00162227
0.00163553
0.00164737
0.00166107
0.0016783
0.0017021
0.0017329
0.0017733
0.00182405
0.00188703
0.00196156
0.00205159
0.0021554
0.00227663
0.00241358
0.00256971
0.00274572
0.00294137
0.00316855
0.00340873
0.00371768
0.00402343
0.00440377
0.00471177
0.00479107
0.00413599
0.00189096
0.00016684
0.000602274
0.000982827
0.00136736
0.00167276
0.00192534
0.00213935
0.00231887
0.00246959
0.00259561
0.00270403
0.00279882
0.00288624
0.00296815
0.00305157
0.00313573
0.00322706
0.00332289
0.00343005
0.00354387
0.00367178
0.00380712
0.00395844
0.00411715
0.0042924
0.00447406
0.00467202
0.00487474
0.00509259
0.00531257
0.00554586
0.00577691
0.00602937
0.00625497
0.00642873
0.00635101
0.0060145
0.00512848
0.00383921
0.00173101
0.000112381
0.000196869
0.000306824
0.000427944
0.000543851
0.000648307
0.000741519
0.00082415
0.000897257
0.000961387
0.00101724
0.00106572
0.00110754
0.00114394
0.00117556
0.00120428
0.00122969
0.00125447
0.001277
0.00130112
0.00132361
0.00134976
0.00137457
0.00140494
0.00143411
0.0014703
0.00150561
0.00154839
0.00159121
0.00163973
0.00168976
0.0017395
0.00179254
0.00183873
0.00189574
0.00194827
0.00198411
0.00196497
0.00187838
0.00155306
)
;

boundaryField
{
    movingWall
    {
        type            kqRWallFunction;
        value           nonuniform List<scalar> 
40
(
0.000112381
0.000196869
0.000306824
0.000427944
0.000543851
0.000648307
0.000741519
0.00082415
0.000897257
0.000961387
0.00101724
0.00106572
0.00110754
0.00114394
0.00117556
0.00120428
0.00122969
0.00125447
0.001277
0.00130112
0.00132361
0.00134976
0.00137457
0.00140494
0.00143411
0.0014703
0.00150561
0.00154839
0.00159121
0.00163973
0.00168976
0.0017395
0.00179254
0.00183873
0.00189574
0.00194827
0.00198411
0.00196497
0.00187838
0.00155306
)
;
    }
    fixedWalls
    {
        type            kqRWallFunction;
        value           nonuniform List<scalar> 
120
(
1.49537e-06
6.94735e-06
1.75991e-05
3.57621e-05
6.40266e-05
0.00010673
0.000161007
0.000221848
0.000279891
0.000328618
0.00036376
0.000385246
0.000390912
0.000387313
0.0003776
0.000359426
0.000335828
0.000309302
0.000279874
0.00025085
0.000227285
0.000206449
0.000187183
0.00016888
0.00015122
0.000134152
0.000117824
0.000102601
8.89846e-05
7.74988e-05
6.84722e-05
6.19026e-05
5.73032e-05
5.50637e-05
5.69617e-05
6.31528e-05
7.40952e-05
0.000100632
0.00016684
0.000112381
2.09078e-06
5.03795e-06
4.80568e-06
4.08403e-06
4.63652e-06
7.51774e-06
1.46323e-05
2.99846e-05
7.57718e-05
0.00015314
0.000237215
0.000317923
0.000390125
0.00046282
0.000532093
0.000603221
0.000673167
0.000745482
0.000817486
0.000891724
0.000965919
0.0010417
0.00111724
0.00119338
0.00126864
0.00134305
0.00141533
0.00148523
0.00155178
0.00161494
0.00167412
0.0017305
0.00178481
0.0018432
0.00190278
0.00192926
0.00193891
0.00189096
0.00173101
0.00155306
1.49537e-06
6.47096e-06
1.37433e-05
1.80831e-05
2.05069e-05
2.23704e-05
2.48366e-05
2.70991e-05
2.88457e-05
3.2053e-05
4.01292e-05
5.60596e-05
7.3246e-05
8.65242e-05
0.000103108
0.000122846
0.00014472
0.000165876
0.000189178
0.000212745
0.000238985
0.00026699
0.000298879
0.000335005
0.000378627
0.000425907
0.000469174
0.000510146
0.00054272
0.000561696
0.000568967
0.000553378
0.000499295
0.000413343
0.000298246
0.000175943
8.07023e-05
3.25398e-05
1.0262e-05
2.09078e-06
)
;
    }
    frontAndBack
    {
        type            empty;
    }
}


// ************************************************************************* //
