/*--------------------------------*- C++ -*----------------------------------*\
  =========                 |
  \\      /  F ield         | OpenFOAM: The Open Source CFD Toolbox
   \\    /   O peration     | Website:  https://openfoam.org
    \\  /    A nd           | Version:  12
     \\/     M anipulation  |
\*---------------------------------------------------------------------------*/
FoamFile
{
    format      ascii;
    class       volScalarField;
    location    "3";
    object      nut;
}
// * * * * * * * * * * * * * * * * * * * * * * * * * * * * * * * * * * * * * //

dimensions      [0 2 -1 0 0 0 0];

internalField   nonuniform List<scalar> 
1600
(
1.05169e-08
4.54837e-08
9.65869e-08
1.26964e-07
1.43815e-07
1.56785e-07
1.74103e-07
1.9008e-07
2.02627e-07
2.25458e-07
2.82661e-07
3.9479e-07
5.15397e-07
6.08607e-07
7.25135e-07
8.63857e-07
1.01753e-06
1.16625e-06
1.33006e-06
1.49578e-06
1.68032e-06
1.87727e-06
2.10159e-06
2.35569e-06
2.66255e-06
2.9951e-06
3.29943e-06
3.58752e-06
3.81665e-06
3.95007e-06
4.00118e-06
3.89136e-06
3.51081e-06
2.90598e-06
2.09648e-06
1.2366e-06
5.67228e-07
2.28731e-07
7.21556e-08
1.47077e-08
4.88433e-08
1.76854e-06
5.25252e-06
6.95974e-06
7.56389e-06
7.51105e-06
7.06187e-06
6.33464e-06
5.55309e-06
5.2011e-06
5.58714e-06
6.36814e-06
7.74633e-06
8.63199e-06
9.79814e-06
1.11027e-05
1.28222e-05
1.43238e-05
1.60625e-05
1.76361e-05
1.92794e-05
2.07932e-05
2.23717e-05
2.37091e-05
2.47252e-05
2.54737e-05
2.62546e-05
2.6833e-05
2.71706e-05
2.68516e-05
2.6576e-05
2.48769e-05
2.24117e-05
1.90623e-05
1.46409e-05
1.01184e-05
5.24244e-06
2.20421e-06
7.91063e-07
3.54102e-08
1.23768e-07
4.36068e-06
1.13392e-05
1.45233e-05
1.54354e-05
1.55496e-05
1.55113e-05
1.51168e-05
1.47701e-05
1.50422e-05
1.52683e-05
1.54899e-05
1.60297e-05
1.65182e-05
1.83281e-05
2.06605e-05
2.29555e-05
2.52405e-05
2.75302e-05
2.97335e-05
3.17214e-05
3.34496e-05
3.46637e-05
3.55896e-05
3.62647e-05
3.67245e-05
3.69194e-05
3.67363e-05
3.60856e-05
3.45712e-05
3.25864e-05
3.03306e-05
2.62793e-05
2.20142e-05
1.60878e-05
1.06783e-05
5.33039e-06
2.71185e-06
1.05129e-06
3.37423e-08
2.51683e-07
8.00297e-06
1.67274e-05
1.98837e-05
2.05039e-05
2.04852e-05
2.04251e-05
2.01266e-05
2.00256e-05
1.94828e-05
1.84468e-05
1.92794e-05
2.16815e-05
2.4148e-05
2.77151e-05
3.02274e-05
3.29418e-05
3.52966e-05
3.762e-05
3.91992e-05
4.05645e-05
4.14697e-05
4.20683e-05
4.23576e-05
4.24151e-05
4.22224e-05
4.17283e-05
4.08762e-05
3.96232e-05
3.77731e-05
3.54981e-05
3.28238e-05
2.88157e-05
2.4415e-05
1.90966e-05
1.23619e-05
5.53991e-06
2.332e-06
9.08308e-07
2.8642e-08
4.50863e-07
1.26197e-05
2.19713e-05
2.4452e-05
2.45901e-05
2.4429e-05
2.3922e-05
2.36184e-05
2.17973e-05
2.09939e-05
2.32799e-05
2.61348e-05
2.92309e-05
3.25684e-05
3.58167e-05
3.84723e-05
4.1267e-05
4.33461e-05
4.50765e-05
4.62873e-05
4.72029e-05
4.7713e-05
4.79357e-05
4.78737e-05
4.74841e-05
4.68022e-05
4.57968e-05
4.44587e-05
4.28112e-05
4.05891e-05
3.80494e-05
3.52958e-05
3.157e-05
2.73132e-05
2.24774e-05
1.67838e-05
9.18549e-06
3.02392e-06
8.62573e-07
3.25276e-08
7.51775e-07
1.71677e-05
2.68422e-05
2.84472e-05
2.79581e-05
2.69533e-05
2.64171e-05
2.42685e-05
2.35535e-05
2.62852e-05
2.96354e-05
3.30789e-05
3.62349e-05
3.97274e-05
4.2815e-05
4.57815e-05
4.80459e-05
4.99116e-05
5.13661e-05
5.24382e-05
5.31839e-05
5.35946e-05
5.37267e-05
5.35993e-05
5.32476e-05
5.27259e-05
5.20355e-05
5.10946e-05
4.96599e-05
4.73684e-05
4.45415e-05
4.17342e-05
3.77872e-05
3.23132e-05
2.58122e-05
1.96356e-05
1.28268e-05
4.40466e-06
1.11729e-06
5.27857e-08
1.13453e-06
2.12686e-05
3.10862e-05
3.17233e-05
3.01175e-05
2.92912e-05
2.69435e-05
2.58619e-05
2.80986e-05
3.22258e-05
3.58091e-05
3.89727e-05
4.24532e-05
4.60068e-05
4.91901e-05
5.17239e-05
5.38181e-05
5.55457e-05
5.68852e-05
5.78679e-05
5.85201e-05
5.88375e-05
5.8824e-05
5.84812e-05
5.78873e-05
5.71039e-05
5.61945e-05
5.52561e-05
5.42881e-05
5.30765e-05
5.04359e-05
4.68011e-05
4.39295e-05
3.95829e-05
3.29503e-05
2.40852e-05
1.54776e-05
7.78057e-06
1.67426e-06
1.02806e-07
1.56355e-06
2.49616e-05
3.43996e-05
3.36612e-05
3.24236e-05
2.98615e-05
2.81876e-05
2.92269e-05
3.36579e-05
3.7718e-05
4.07597e-05
4.41584e-05
4.80711e-05
5.1642e-05
5.44329e-05
5.68088e-05
5.88018e-05
6.0509e-05
6.19119e-05
6.30245e-05
6.37208e-05
6.39998e-05
6.38927e-05
6.34519e-05
6.27239e-05
6.17509e-05
6.05888e-05
5.9278e-05
5.78808e-05
5.65343e-05
5.52687e-05
5.21271e-05
4.77597e-05
4.44548e-05
3.93102e-05
3.10633e-05
2.03039e-05
9.77172e-06
2.116e-06
2.10737e-07
1.97238e-06
2.77486e-05
3.65955e-05
3.65697e-05
3.40953e-05
3.09029e-05
3.03463e-05
3.40618e-05
3.85549e-05
4.2071e-05
4.51917e-05
4.91842e-05
5.30484e-05
5.63114e-05
5.8967e-05
6.14894e-05
6.38537e-05
6.58317e-05
6.73799e-05
6.84113e-05
6.90264e-05
6.92656e-05
6.91254e-05
6.86108e-05
6.7715e-05
6.64999e-05
6.50528e-05
6.34746e-05
6.18432e-05
6.01552e-05
5.8368e-05
5.67977e-05
5.26497e-05
4.8461e-05
4.45879e-05
3.72904e-05
2.63809e-05
1.45009e-05
3.59841e-06
5.32731e-07
2.31545e-06
2.96171e-05
3.833e-05
3.82776e-05
3.47338e-05
3.24456e-05
3.38066e-05
3.85565e-05
4.27473e-05
4.57868e-05
4.94816e-05
5.35841e-05
5.7241e-05
6.05714e-05
6.37127e-05
6.65428e-05
6.89033e-05
7.0781e-05
7.23146e-05
7.35197e-05
7.43438e-05
7.47416e-05
7.46795e-05
7.41288e-05
7.30866e-05
7.16014e-05
6.97715e-05
6.7744e-05
6.56867e-05
6.37273e-05
6.18682e-05
5.9908e-05
5.74081e-05
5.19735e-05
4.87773e-05
4.2862e-05
3.19144e-05
1.85224e-05
5.98949e-06
1.07697e-06
2.56245e-06
3.07954e-05
3.99495e-05
4.01779e-05
3.60147e-05
3.43803e-05
3.78235e-05
4.23603e-05
4.61355e-05
4.92261e-05
5.33596e-05
5.75051e-05
6.14051e-05
6.50136e-05
6.82191e-05
7.09497e-05
7.33338e-05
7.54449e-05
7.71283e-05
7.86735e-05
7.97571e-05
8.03392e-05
8.04069e-05
7.99037e-05
7.88005e-05
7.71087e-05
7.49021e-05
7.2335e-05
6.9636e-05
6.70548e-05
6.47574e-05
6.2693e-05
6.04838e-05
5.66712e-05
5.17908e-05
4.76796e-05
3.77525e-05
2.36321e-05
8.06653e-06
1.66833e-06
2.71344e-06
3.14634e-05
4.11962e-05
4.08668e-05
3.74254e-05
3.68379e-05
4.11732e-05
4.55286e-05
4.90544e-05
5.25462e-05
5.69691e-05
6.13208e-05
6.53291e-05
6.88593e-05
7.20235e-05
7.49453e-05
7.75817e-05
7.9947e-05
8.18446e-05
8.34784e-05
8.48943e-05
8.566e-05
8.59e-05
8.55376e-05
8.45099e-05
8.27762e-05
8.0351e-05
7.73462e-05
7.39997e-05
7.06581e-05
6.76742e-05
6.52289e-05
6.31484e-05
6.03864e-05
5.45649e-05
5.10574e-05
4.25467e-05
2.82121e-05
1.09365e-05
2.23597e-06
2.75282e-06
3.15471e-05
4.17317e-05
4.20029e-05
3.87818e-05
3.95326e-05
4.39623e-05
4.82365e-05
5.17237e-05
5.56517e-05
6.03e-05
6.46498e-05
6.85714e-05
7.21989e-05
7.55171e-05
7.86332e-05
8.14844e-05
8.40222e-05
8.6041e-05
8.76592e-05
8.92934e-05
9.02144e-05
9.0631e-05
9.04804e-05
8.96737e-05
8.81132e-05
8.57287e-05
8.25362e-05
7.87072e-05
7.46082e-05
7.07405e-05
6.75368e-05
6.50695e-05
6.28183e-05
5.81108e-05
5.36367e-05
4.68841e-05
3.26963e-05
1.34399e-05
2.74371e-06
2.72738e-06
3.14086e-05
4.21549e-05
4.2971e-05
4.01645e-05
4.19748e-05
4.62898e-05
5.05704e-05
5.41394e-05
5.83586e-05
6.30666e-05
6.74579e-05
7.14098e-05
7.50684e-05
7.86222e-05
8.18773e-05
8.47874e-05
8.74187e-05
8.94481e-05
9.0972e-05
9.25445e-05
9.35706e-05
9.41255e-05
9.42164e-05
9.3748e-05
9.25747e-05
9.05326e-05
8.75052e-05
8.35258e-05
7.88866e-05
7.41651e-05
7.00569e-05
6.70078e-05
6.48553e-05
6.15041e-05
5.572e-05
5.03459e-05
3.66392e-05
1.613e-05
3.25493e-06
2.65886e-06
3.10429e-05
4.24888e-05
4.36845e-05
4.15519e-05
4.39149e-05
4.82161e-05
5.2562e-05
5.62343e-05
6.06607e-05
6.54208e-05
6.97744e-05
7.37223e-05
7.76208e-05
8.12478e-05
8.45175e-05
8.73834e-05
8.98323e-05
9.18913e-05
9.31564e-05
9.44695e-05
9.54672e-05
9.60836e-05
9.63986e-05
9.63353e-05
9.57192e-05
9.43003e-05
9.18138e-05
8.81001e-05
8.32755e-05
7.78695e-05
7.2754e-05
6.87333e-05
6.59618e-05
6.36595e-05
5.76143e-05
5.31635e-05
4.0251e-05
1.84913e-05
3.74203e-06
2.53075e-06
3.03547e-05
4.23585e-05
4.42145e-05
4.27964e-05
4.5429e-05
4.9762e-05
5.41991e-05
5.79939e-05
6.25464e-05
6.73274e-05
7.15914e-05
7.57006e-05
7.96682e-05
8.32752e-05
8.64587e-05
8.91594e-05
9.13448e-05
9.31054e-05
9.41799e-05
9.50502e-05
9.58619e-05
9.6437e-05
9.69188e-05
9.727e-05
9.7312e-05
9.67304e-05
9.51192e-05
9.21007e-05
8.75387e-05
8.17923e-05
7.58055e-05
7.07664e-05
6.73181e-05
6.48757e-05
5.97216e-05
5.51706e-05
4.31367e-05
2.09712e-05
4.24218e-06
2.36475e-06
2.95212e-05
4.19975e-05
4.45627e-05
4.38346e-05
4.65833e-05
5.09443e-05
5.54783e-05
5.94149e-05
6.40431e-05
6.87221e-05
7.29903e-05
7.722e-05
8.11459e-05
8.46576e-05
8.767e-05
9.01158e-05
9.19684e-05
9.32629e-05
9.40185e-05
9.44428e-05
9.49239e-05
9.53516e-05
9.59179e-05
9.66408e-05
9.73636e-05
9.77376e-05
9.72415e-05
9.52842e-05
9.14298e-05
8.57534e-05
7.91088e-05
7.29823e-05
6.86153e-05
6.59223e-05
6.16503e-05
5.6788e-05
4.5578e-05
2.31907e-05
4.734e-06
2.17776e-06
2.85263e-05
4.14408e-05
4.47426e-05
4.46651e-05
4.74371e-05
5.17903e-05
5.63961e-05
6.04737e-05
6.50991e-05
6.9669e-05
7.39925e-05
7.81987e-05
8.20322e-05
8.53892e-05
8.81723e-05
9.03084e-05
9.17741e-05
9.26155e-05
9.28727e-05
9.29192e-05
9.29833e-05
9.31822e-05
9.37464e-05
9.47592e-05
9.611e-05
9.74529e-05
9.8191e-05
9.755e-05
9.47784e-05
8.95994e-05
8.26126e-05
7.54458e-05
6.99501e-05
6.66389e-05
6.32497e-05
5.78644e-05
4.76964e-05
2.53992e-05
5.24247e-06
1.97085e-06
2.75306e-05
4.07283e-05
4.47526e-05
4.53033e-05
4.79295e-05
5.2257e-05
5.69315e-05
6.11521e-05
6.57251e-05
7.01997e-05
7.45286e-05
7.86378e-05
8.23343e-05
8.54995e-05
8.80275e-05
8.98427e-05
9.09262e-05
9.13401e-05
9.11221e-05
9.07906e-05
9.04527e-05
9.03911e-05
9.08832e-05
9.2084e-05
9.39482e-05
9.61749e-05
9.81418e-05
9.8945e-05
9.75083e-05
9.32016e-05
8.62356e-05
7.81772e-05
7.14495e-05
6.73429e-05
6.4497e-05
5.87317e-05
4.94865e-05
2.73814e-05
5.74873e-06
1.76617e-06
2.62888e-05
3.99365e-05
4.4636e-05
4.57548e-05
4.83297e-05
5.25249e-05
5.7091e-05
6.14348e-05
6.59356e-05
7.0326e-05
7.45827e-05
7.85542e-05
8.20837e-05
8.5042e-05
8.73188e-05
8.88388e-05
8.95883e-05
8.9641e-05
8.90892e-05
8.83803e-05
8.77466e-05
8.74495e-05
8.78334e-05
8.91272e-05
9.13543e-05
9.42516e-05
9.7224e-05
9.94742e-05
9.9768e-05
9.65969e-05
8.9869e-05
8.11345e-05
7.31162e-05
6.80899e-05
6.52621e-05
5.94884e-05
5.10116e-05
2.93291e-05
6.27068e-06
1.60014e-06
2.4752e-05
3.88878e-05
4.43525e-05
4.60399e-05
4.83779e-05
5.23073e-05
5.69916e-05
6.13394e-05
6.57364e-05
7.00482e-05
7.4173e-05
7.7983e-05
8.13286e-05
8.40823e-05
8.61327e-05
8.74057e-05
8.78972e-05
8.76929e-05
8.69512e-05
8.59824e-05
8.5094e-05
8.45966e-05
8.48411e-05
8.61361e-05
8.85821e-05
9.2032e-05
9.59857e-05
9.95078e-05
0.000101267
9.96908e-05
9.35333e-05
8.42575e-05
7.49141e-05
6.8695e-05
6.56316e-05
6.02178e-05
5.22776e-05
3.11272e-05
6.79229e-06
1.45339e-06
2.29968e-05
3.76677e-05
4.37908e-05
4.62916e-05
4.84065e-05
5.21086e-05
5.6361e-05
6.09148e-05
6.51942e-05
6.93501e-05
7.33158e-05
7.69766e-05
8.01272e-05
8.26886e-05
8.45392e-05
8.56088e-05
8.59226e-05
8.55983e-05
8.48e-05
8.37695e-05
8.28091e-05
8.22334e-05
8.23365e-05
8.36929e-05
8.64093e-05
9.04076e-05
9.51294e-05
9.94025e-05
0.000102029
0.000101782
9.69889e-05
8.7426e-05
7.6877e-05
6.92935e-05
6.57553e-05
6.09865e-05
5.33821e-05
3.28446e-05
7.32505e-06
1.31783e-06
2.12431e-05
3.6079e-05
4.29988e-05
4.63935e-05
4.84228e-05
5.17571e-05
5.57834e-05
5.99854e-05
6.43401e-05
6.83494e-05
7.21365e-05
7.5611e-05
7.85579e-05
8.09028e-05
8.25398e-05
8.35097e-05
8.38464e-05
8.35661e-05
8.2807e-05
8.17868e-05
8.0926e-05
8.04648e-05
8.05906e-05
8.20142e-05
8.48336e-05
8.89164e-05
9.39242e-05
9.90755e-05
0.000102944
0.000103635
9.98667e-05
9.05431e-05
7.89703e-05
6.99178e-05
6.55647e-05
6.16405e-05
5.43519e-05
3.44299e-05
7.85602e-06
1.18912e-06
1.9487e-05
3.4271e-05
4.20457e-05
4.62744e-05
4.82969e-05
5.12033e-05
5.51698e-05
5.89697e-05
6.2917e-05
6.69031e-05
7.05815e-05
7.38426e-05
7.65643e-05
7.87467e-05
8.04067e-05
8.14284e-05
8.17816e-05
8.15422e-05
8.0855e-05
7.9899e-05
7.91779e-05
7.87718e-05
7.88869e-05
8.02627e-05
8.30775e-05
8.73846e-05
9.28619e-05
9.86836e-05
0.000103488
0.000105421
0.0001024
9.35464e-05
8.10843e-05
7.06092e-05
6.52823e-05
6.19937e-05
5.52541e-05
3.59107e-05
8.39121e-06
1.06496e-06
1.77477e-05
3.23514e-05
4.09333e-05
4.58625e-05
4.83218e-05
5.07784e-05
5.42454e-05
5.81753e-05
6.16406e-05
6.51057e-05
6.84943e-05
7.16051e-05
7.42936e-05
7.64893e-05
7.80985e-05
7.90774e-05
7.94664e-05
7.93511e-05
7.88421e-05
7.80285e-05
7.75266e-05
7.72044e-05
7.74021e-05
7.88824e-05
8.1832e-05
8.63167e-05
9.20714e-05
9.8326e-05
0.000103784
0.000106624
0.000104602
9.62334e-05
8.31098e-05
7.12803e-05
6.4981e-05
6.20288e-05
5.59726e-05
3.73533e-05
8.92018e-06
9.44945e-07
1.6071e-05
3.03724e-05
3.96713e-05
4.50428e-05
4.83748e-05
5.04879e-05
5.33085e-05
5.69916e-05
6.06468e-05
6.38059e-05
6.67178e-05
6.95085e-05
7.20191e-05
7.40888e-05
7.56199e-05
7.66249e-05
7.71214e-05
7.71639e-05
7.68072e-05
7.61799e-05
7.5891e-05
7.57556e-05
7.61532e-05
7.78357e-05
8.09295e-05
8.5558e-05
9.14837e-05
9.79898e-05
0.000103856
0.000107359
0.000106288
9.84375e-05
8.49147e-05
7.18329e-05
6.4624e-05
6.17639e-05
5.65327e-05
3.8754e-05
9.44313e-06
8.3007e-07
1.45011e-05
2.84088e-05
3.82692e-05
4.39141e-05
4.82495e-05
5.03425e-05
5.27256e-05
5.56201e-05
5.91942e-05
6.25155e-05
6.54416e-05
6.79522e-05
7.01518e-05
7.19711e-05
7.33941e-05
7.43781e-05
7.48883e-05
7.49607e-05
7.47663e-05
7.4375e-05
7.42599e-05
7.43738e-05
7.50755e-05
7.69979e-05
8.02782e-05
8.50299e-05
9.10316e-05
9.76156e-05
0.000103641
0.000107504
0.000107103
9.99622e-05
8.63387e-05
7.21785e-05
6.41097e-05
6.15465e-05
5.69157e-05
4.01103e-05
9.95105e-06
7.22857e-07
1.30817e-05
2.64954e-05
3.67135e-05
4.28924e-05
4.75523e-05
5.04386e-05
5.24763e-05
5.48628e-05
5.75633e-05
6.07351e-05
6.36774e-05
6.61999e-05
6.828e-05
6.99685e-05
7.12524e-05
7.21236e-05
7.25974e-05
7.27596e-05
7.27258e-05
7.26231e-05
7.26662e-05
7.30656e-05
7.41562e-05
7.63628e-05
7.9838e-05
8.4666e-05
9.06275e-05
9.71027e-05
0.000103034
0.000106956
0.000106902
0.000100473
8.71577e-05
7.22067e-05
6.31665e-05
6.07279e-05
5.70549e-05
4.1414e-05
1.04422e-05
6.26841e-07
1.18623e-05
2.47998e-05
3.4994e-05
4.19512e-05
4.65792e-05
5.04547e-05
5.2566e-05
5.45942e-05
5.67864e-05
5.90789e-05
6.16075e-05
6.40041e-05
6.60346e-05
6.76702e-05
6.89086e-05
6.97662e-05
7.02862e-05
7.05808e-05
7.08028e-05
7.08973e-05
7.12058e-05
7.19719e-05
7.34776e-05
7.5954e-05
7.95809e-05
8.43884e-05
9.01493e-05
9.62961e-05
0.000101858
0.000105381
0.000105395
9.9842e-05
8.71499e-05
7.18097e-05
6.18335e-05
5.97537e-05
5.69979e-05
4.26375e-05
1.09097e-05
5.45758e-07
1.09052e-05
2.3458e-05
3.32459e-05
4.08562e-05
4.58686e-05
4.98724e-05
5.29069e-05
5.48177e-05
5.66929e-05
5.85835e-05
6.04088e-05
6.22023e-05
6.39083e-05
6.54123e-05
6.66104e-05
6.74997e-05
6.8123e-05
6.86241e-05
6.91971e-05
6.94749e-05
7.00841e-05
7.12841e-05
7.31142e-05
7.58029e-05
7.94652e-05
8.40806e-05
8.94159e-05
9.49719e-05
9.96788e-05
0.000102731
0.000102744
9.77567e-05
8.58402e-05
7.06918e-05
6.00126e-05
5.82943e-05
5.66595e-05
4.37859e-05
1.13534e-05
4.82018e-07
1.02966e-05
2.2277e-05
3.17855e-05
3.96276e-05
4.52573e-05
4.94391e-05
5.28983e-05
5.55016e-05
5.72883e-05
5.89231e-05
6.04543e-05
6.18934e-05
6.31927e-05
6.43304e-05
6.53194e-05
6.61596e-05
6.68643e-05
6.74486e-05
6.83225e-05
6.87615e-05
6.9618e-05
7.11498e-05
7.31685e-05
7.58946e-05
7.93695e-05
8.3528e-05
8.81378e-05
9.26822e-05
9.6565e-05
9.88057e-05
9.82595e-05
9.35594e-05
8.24549e-05
6.85563e-05
5.77095e-05
5.64524e-05
5.60997e-05
4.47653e-05
1.17691e-05
4.35679e-07
1.00755e-05
2.13968e-05
3.08041e-05
3.85721e-05
4.4875e-05
4.95618e-05
5.31388e-05
5.60942e-05
5.84695e-05
6.01042e-05
6.14923e-05
6.27021e-05
6.37635e-05
6.46867e-05
6.54924e-05
6.62051e-05
6.68599e-05
6.74644e-05
6.83811e-05
6.91885e-05
7.00587e-05
7.15773e-05
7.35774e-05
7.60316e-05
7.89744e-05
8.23131e-05
8.58429e-05
8.91659e-05
9.17734e-05
9.28652e-05
9.15811e-05
8.69944e-05
7.73698e-05
6.4483e-05
5.48572e-05
5.42443e-05
5.55862e-05
4.5566e-05
1.21651e-05
4.0331e-07
1.0217e-05
2.09495e-05
3.01048e-05
3.80343e-05
4.47225e-05
4.99023e-05
5.39787e-05
5.71964e-05
5.97329e-05
6.19863e-05
6.35123e-05
6.47057e-05
6.56709e-05
6.6472e-05
6.71557e-05
6.77626e-05
6.83372e-05
6.89061e-05
6.95793e-05
7.05308e-05
7.13404e-05
7.22849e-05
7.38513e-05
7.56121e-05
7.75625e-05
7.96469e-05
8.17113e-05
8.34845e-05
8.45359e-05
8.43699e-05
8.2338e-05
7.7873e-05
7.00569e-05
5.96837e-05
5.08333e-05
5.13972e-05
5.47361e-05
4.56667e-05
1.25465e-05
3.87644e-07
1.08975e-05
2.1091e-05
2.99477e-05
3.78851e-05
4.51376e-05
5.08399e-05
5.55789e-05
5.93199e-05
6.21661e-05
6.4389e-05
6.65022e-05
6.79738e-05
6.89798e-05
6.97357e-05
7.03022e-05
7.07292e-05
7.10637e-05
7.13268e-05
7.15621e-05
7.18183e-05
7.21589e-05
7.2319e-05
7.26818e-05
7.32678e-05
7.37329e-05
7.41907e-05
7.45344e-05
7.46475e-05
7.43539e-05
7.33013e-05
7.09334e-05
6.69119e-05
6.09499e-05
5.37858e-05
4.83713e-05
4.91109e-05
5.38325e-05
4.52809e-05
1.29567e-05
4.01182e-07
1.15485e-05
2.15703e-05
3.05001e-05
3.92364e-05
4.63339e-05
5.27227e-05
5.82042e-05
6.26669e-05
6.62407e-05
6.86173e-05
7.0413e-05
7.21233e-05
7.31166e-05
7.3603e-05
7.37367e-05
7.35838e-05
7.32076e-05
7.25811e-05
7.17347e-05
7.07219e-05
6.95792e-05
6.85446e-05
6.77247e-05
6.65277e-05
6.53587e-05
6.42821e-05
6.31317e-05
6.19203e-05
6.0572e-05
5.90064e-05
5.68246e-05
5.39521e-05
5.00965e-05
4.60663e-05
4.37913e-05
4.71575e-05
5.26106e-05
4.47188e-05
1.33744e-05
4.45039e-07
1.32574e-05
2.41851e-05
3.32795e-05
4.10327e-05
4.82357e-05
5.46837e-05
6.02848e-05
6.48404e-05
6.8357e-05
7.08433e-05
7.18372e-05
7.2758e-05
7.30732e-05
7.25813e-05
7.15933e-05
7.0204e-05
6.84955e-05
6.65183e-05
6.45039e-05
6.21854e-05
6.01359e-05
5.81741e-05
5.60879e-05
5.38654e-05
5.18437e-05
5.00517e-05
4.84734e-05
4.71447e-05
4.60084e-05
4.51154e-05
4.4198e-05
4.34763e-05
4.23756e-05
4.16156e-05
4.22005e-05
4.61671e-05
5.07525e-05
4.27919e-05
1.35597e-05
5.22395e-07
1.48875e-05
2.56613e-05
3.42699e-05
4.18893e-05
4.85364e-05
5.39318e-05
5.80087e-05
6.10161e-05
6.30283e-05
6.41803e-05
6.42232e-05
6.36852e-05
6.28792e-05
6.1397e-05
5.95055e-05
5.73641e-05
5.50468e-05
5.25917e-05
5.01565e-05
4.77434e-05
4.5575e-05
4.34386e-05
4.15999e-05
4.00758e-05
3.88538e-05
3.7949e-05
3.73909e-05
3.72058e-05
3.73549e-05
3.79471e-05
3.88189e-05
4.01963e-05
4.15034e-05
4.3081e-05
4.48968e-05
4.81672e-05
4.92453e-05
4.1286e-05
1.36268e-05
7.09857e-07
1.7074e-05
2.51135e-05
3.0738e-05
3.58119e-05
4.00366e-05
4.32756e-05
4.54834e-05
4.68767e-05
4.75958e-05
4.77538e-05
4.74195e-05
4.66445e-05
4.57037e-05
4.4564e-05
4.33155e-05
4.20184e-05
4.07737e-05
3.96064e-05
3.85941e-05
3.77244e-05
3.70961e-05
3.66447e-05
3.64344e-05
3.64552e-05
3.67356e-05
3.72445e-05
3.80029e-05
3.90013e-05
4.0239e-05
4.17515e-05
4.34808e-05
4.56327e-05
4.77028e-05
4.96986e-05
5.11125e-05
5.20871e-05
4.77235e-05
3.8267e-05
1.32873e-05
1.17705e-06
1.85789e-05
2.2516e-05
2.69733e-05
3.05936e-05
3.34907e-05
3.57885e-05
3.75396e-05
3.88363e-05
3.97744e-05
4.04298e-05
4.08903e-05
4.11855e-05
4.13824e-05
4.1529e-05
4.1663e-05
4.18026e-05
4.19807e-05
4.22069e-05
4.25063e-05
4.28753e-05
4.33327e-05
4.3874e-05
4.45094e-05
4.52283e-05
4.60406e-05
4.69341e-05
4.79151e-05
4.89679e-05
5.01004e-05
5.12865e-05
5.25419e-05
5.38484e-05
5.51271e-05
5.58706e-05
5.51568e-05
5.25403e-05
4.54932e-05
3.15054e-05
1.21618e-05
7.92764e-07
1.38812e-06
2.16189e-06
3.01479e-06
3.83099e-06
4.56652e-06
5.22274e-06
5.80419e-06
6.31824e-06
6.76884e-06
7.16087e-06
7.50087e-06
7.79373e-06
8.04838e-06
8.26927e-06
8.46983e-06
8.64698e-06
8.81985e-06
8.97672e-06
9.14499e-06
9.30162e-06
9.48431e-06
9.6573e-06
9.86981e-06
1.00736e-05
1.03271e-05
1.05743e-05
1.08742e-05
1.11745e-05
1.15148e-05
1.18659e-05
1.22149e-05
1.25876e-05
1.2912e-05
1.33138e-05
1.3683e-05
1.39366e-05
1.38027e-05
1.31951e-05
1.09104e-05
)
;

boundaryField
{
    movingWall
    {
        type            nutkWallFunction;
        Cmu             0.09;
        kappa           0.41;
        E               9.8;
        value           uniform 0;
    }
    fixedWalls
    {
        type            nutkWallFunction;
        Cmu             0.09;
        kappa           0.41;
        E               9.8;
        value           uniform 0;
    }
    frontAndBack
    {
        type            empty;
    }
}


// ************************************************************************* //
