/*--------------------------------*- C++ -*----------------------------------*\
  =========                 |
  \\      /  F ield         | OpenFOAM: The Open Source CFD Toolbox
   \\    /   O peration     | Website:  https://openfoam.org
    \\  /    A nd           | Version:  12
     \\/     M anipulation  |
\*---------------------------------------------------------------------------*/
FoamFile
{
    format      ascii;
    class       volScalarField;
    location    "3";
    object      p;
}
// * * * * * * * * * * * * * * * * * * * * * * * * * * * * * * * * * * * * * //

dimensions      [0 2 -2 0 0 0 0];

internalField   nonuniform List<scalar> 
1600
(
2.1243e-08
-1.18353e-05
-6.14902e-05
-0.000141589
-0.000231592
-0.000320497
-0.000406038
-0.000493689
-0.000593049
-0.000711544
-0.000857332
-0.00105363
-0.00133677
-0.00155762
-0.00168073
-0.00186826
-0.00219967
-0.00262365
-0.0030606
-0.00343075
-0.00367038
-0.0037317
-0.00358054
-0.0031868
-0.0025425
-0.00166168
-0.000555024
0.000753241
0.00220117
0.00367325
0.00499558
0.0059717
0.00644838
0.00637519
0.00576035
0.00508568
0.00460421
0.00446535
0.00450562
0.00452892
-3.78775e-06
-2.51965e-05
-7.89478e-05
-0.000159394
-0.000241009
-0.000315163
-0.000382905
-0.000453044
-0.000536046
-0.000632869
-0.000732975
-0.000877593
-0.00112543
-0.00144591
-0.00177683
-0.00213267
-0.00254585
-0.00299716
-0.00343462
-0.00379637
-0.00402864
-0.0040906
-0.00395321
-0.00359621
-0.00301784
-0.00220177
-0.0011511
9.95761e-05
0.00149078
0.00291906
0.00423781
0.00526393
0.00583084
0.00585147
0.00537745
0.00472454
0.00433703
0.00430746
0.00440188
0.00445276
1.14345e-05
-2.77773e-05
-9.37261e-05
-0.000177883
-0.000253252
-0.000307264
-0.0003436
-0.000374116
-0.000423246
-0.000535905
-0.000736048
-0.00100826
-0.00135578
-0.00177383
-0.00224468
-0.00274475
-0.00324986
-0.00373433
-0.00416343
-0.00450129
-0.00471242
-0.00476765
-0.00464348
-0.00432474
-0.00379726
-0.0030519
-0.00209405
-0.000948277
0.000340545
0.00169876
0.00301296
0.00412924
0.00487695
0.00513173
0.00492293
0.0044868
0.00420969
0.00419434
0.00429709
0.00433405
6.39904e-05
3.24205e-06
-8.13245e-05
-0.00016489
-0.000227932
-0.000268169
-0.000297167
-0.000341328
-0.000439427
-0.000636865
-0.000967088
-0.00141503
-0.00193384
-0.00249299
-0.0030732
-0.00365071
-0.00419697
-0.00468727
-0.0051024
-0.00541943
-0.00561418
-0.00566355
-0.00554753
-0.00525659
-0.00477885
-0.00411239
-0.00326223
-0.00224349
-0.00108337
0.000173828
0.00145024
0.00263006
0.003567
0.0041394
0.00432803
0.00426024
0.00419669
0.0041795
0.00423186
0.0042305
0.000185216
9.44401e-05
-7.03413e-06
-9.27614e-05
-0.000156858
-0.000209818
-0.000277611
-0.000401458
-0.000629317
-0.000994716
-0.00150023
-0.00210907
-0.00276702
-0.00343453
-0.00408404
-0.00469415
-0.00525057
-0.00574333
-0.00615607
-0.00645863
-0.00663446
-0.0066713
-0.00656227
-0.00630099
-0.00587838
-0.00529538
-0.00455336
-0.00365929
-0.00262942
-0.00149587
-0.000305669
0.000873438
0.00195256
0.00283871
0.00347535
0.00387532
0.00411735
0.00423558
0.00420365
0.00414914
0.000383545
0.000255151
0.000136941
3.7842e-05
-5.1928e-05
-0.000160531
-0.000328178
-0.00060343
-0.00102161
-0.00158284
-0.00225421
-0.00298844
-0.00374055
-0.00447401
-0.00516367
-0.00579615
-0.00635991
-0.0068397
-0.00721819
-0.00748608
-0.00763774
-0.007665
-0.00756512
-0.00733443
-0.00696884
-0.00646869
-0.0058344
-0.00506782
-0.00417443
-0.00316725
-0.00206951
-0.000920687
0.000225341
0.00132712
0.00233663
0.00318897
0.00381211
0.00417208
0.00413848
0.00404559
0.000632499
0.000472868
0.000324006
0.000194037
4.62165e-05
-0.00016622
-0.000491045
-0.000962656
-0.00158358
-0.0023223
-0.00312838
-0.00395578
-0.00476829
-0.00553672
-0.0062414
-0.00687058
-0.00741387
-0.00786245
-0.00820766
-0.00844611
-0.00857532
-0.00859273
-0.00849821
-0.00829058
-0.00797046
-0.00753892
-0.00699657
-0.00634328
-0.00557841
-0.00470243
-0.00371953
-0.00264051
-0.00148124
-0.000261519
0.000986525
0.00219379
0.00320323
0.00385935
0.00406474
0.00388977
0.000890828
0.000695886
0.000502696
0.000320078
8.22356e-05
-0.000274418
-0.0007873
-0.00146008
-0.00226292
-0.00314306
-0.00404711
-0.00493659
-0.00578139
-0.00655958
-0.00725744
-0.0078665
-0.0083805
-0.00879562
-0.00910892
-0.00931966
-0.00942774
-0.00943414
-0.00934146
-0.00914882
-0.00886154
-0.00848175
-0.00801068
-0.00744766
-0.00678937
-0.00602972
-0.00516118
-0.00417654
-0.00306736
-0.00182388
-0.000452533
0.000981494
0.00230875
0.00332393
0.00387651
0.00363272
0.00109809
0.000856441
0.000608135
0.000354639
2.41366e-06
-0.000516077
-0.00121444
-0.00206523
-0.00301268
-0.00399386
-0.00496202
-0.00588573
-0.00674097
-0.00751236
-0.0081913
-0.0087732
-0.00925577
-0.00963849
-0.00992158
-0.0101063
-0.0101944
-0.0101885
-0.0100912
-0.00990976
-0.00964556
-0.00930315
-0.00888516
-0.00839148
-0.00781805
-0.00715593
-0.00639108
-0.00550493
-0.00447487
-0.00327271
-0.00187711
-0.000321999
0.00123079
0.00256659
0.00339769
0.0033155
0.0011657
0.000889668
0.00058483
0.00025117
-0.000224553
-0.000898303
-0.00175571
-0.00274614
-0.00379499
-0.00484028
-0.00584381
-0.00677978
-0.00762993
-0.00838443
-0.00903889
-0.00959207
-0.0100445
-0.0103979
-0.010654
-0.0108155
-0.0108853
-0.0108675
-0.0107663
-0.0105879
-0.0103372
-0.0100194
-0.00963833
-0.00919505
-0.0086863
-0.00810288
-0.00742841
-0.006639
-0.00570392
-0.00458472
-0.00323598
-0.00164782
3.61384e-05
0.00157211
0.00270387
0.00325148
0.00106834
0.000762546
0.000403347
-1.147e-05
-0.000600205
-0.00140604
-0.00238555
-0.00346985
-0.00458039
-0.00565938
-0.0066757
-0.00760799
-0.00844312
-0.00917572
-0.00980457
-0.0103308
-0.0107565
-0.0110845
-0.0113177
-0.0114594
-0.0115133
-0.0114841
-0.0113769
-0.0111981
-0.0109539
-0.0106506
-0.0102932
-0.00988437
-0.00942238
-0.00889946
-0.00829978
-0.00759832
-0.00676139
-0.00574714
-0.00449948
-0.00297113
-0.00123984
0.000387682
0.00178836
0.0027737
0.000794346
0.000467099
6.16808e-05
-0.00042516
-0.0011063
-0.00200696
-0.00307152
-0.00420763
-0.00534708
-0.00643597
-0.0074485
-0.00836673
-0.00918172
-0.00989121
-0.010496
-0.0109986
-0.0114019
-0.0117092
-0.0119239
-0.0120493
-0.0120897
-0.0120498
-0.0119354
-0.0117532
-0.0115101
-0.0112135
-0.0108697
-0.0104827
-0.0100529
-0.00957495
-0.00903525
-0.0084104
-0.00766689
-0.0067627
-0.00564375
-0.0042416
-0.00254792
-0.000905976
0.000560482
0.00166021
0.000357652
2.0689e-05
-0.000417883
-0.000959235
-0.00170986
-0.00266808
-0.00377534
-0.00493399
-0.00607797
-0.00715985
-0.00815759
-0.00905604
-0.00984924
-0.0105368
-0.0111206
-0.0116037
-0.0119892
-0.0122805
-0.0124807
-0.0125932
-0.012622
-0.0125722
-0.0124497
-0.0122615
-0.0120155
-0.0117198
-0.0113816
-0.0110069
-0.010598
-0.0101521
-0.00965896
-0.00909845
-0.00843936
-0.0076412
-0.00665448
-0.00540905
-0.00386349
-0.00225336
-0.000870511
0.000155738
-0.00020451
-0.000539552
-0.000995725
-0.00157242
-0.00236518
-0.00335404
-0.00446966
-0.00562797
-0.00675962
-0.00782372
-0.00880045
-0.00967689
-0.010449
-0.0111172
-0.0116838
-0.0121518
-0.0125241
-0.0128034
-0.0129928
-0.0130951
-0.0131141
-0.0130548
-0.0129235
-0.0127275
-0.0124752
-0.0121757
-0.0118375
-0.0114678
-0.011071
-0.010647
-0.010189
-0.00968117
-0.00909605
-0.00839572
-0.00753447
-0.00645198
-0.00510309
-0.00359293
-0.00236778
-0.00149152
-0.000843011
-0.00116651
-0.00162712
-0.00222303
-0.00303186
-0.00402752
-0.00513086
-0.00627239
-0.00738133
-0.00842172
-0.00937491
-0.0102296
-0.0109827
-0.011635
-0.0121884
-0.0126455
-0.0130085
-0.0132797
-0.0134612
-0.0135556
-0.0135663
-0.0134981
-0.0133574
-0.0131519
-0.0128908
-0.0125839
-0.0122411
-0.0118709
-0.0114796
-0.0110694
-0.0106371
-0.0101708
-0.00964814
-0.00903509
-0.0082905
-0.00736726
-0.00621481
-0.0048637
-0.00380664
-0.00309018
-0.00150842
-0.00181316
-0.00226723
-0.00286919
-0.00367605
-0.00465889
-0.00573784
-0.00685296
-0.00793409
-0.00894852
-0.00987831
-0.0107132
-0.0114505
-0.0120904
-0.0126345
-0.0130844
-0.0134418
-0.0137079
-0.0138843
-0.0139728
-0.0139765
-0.0138999
-0.0137493
-0.013533
-0.0132609
-0.0129439
-0.012593
-0.0122181
-0.011827
-0.0114243
-0.0110095
-0.0105749
-0.0101027
-0.00956382
-0.00892123
-0.00813647
-0.00716409
-0.0060245
-0.00512274
-0.00452889
-0.00215508
-0.00243664
-0.00287589
-0.00347234
-0.00426758
-0.0052259
-0.00627382
-0.00735796
-0.00840987
-0.00939879
-0.0103071
-0.0111252
-0.01185
-0.0124812
-0.0130194
-0.0134656
-0.0138204
-0.0140842
-0.0142577
-0.0143422
-0.0143401
-0.0142556
-0.0140951
-0.0138671
-0.0135825
-0.0132531
-0.0128912
-0.0125082
-0.0121134
-0.0117131
-0.0113093
-0.0108976
-0.010465
-0.00998698
-0.00943059
-0.00876173
-0.00794275
-0.00700581
-0.00625512
-0.00576042
-0.00274756
-0.00300363
-0.00342263
-0.004005
-0.00478089
-0.00571005
-0.00672562
-0.00777772
-0.00880139
-0.00976696
-0.0106569
-0.0114616
-0.0121775
-0.0128033
-0.0133388
-0.0137841
-0.0141388
-0.0144026
-0.0145753
-0.0146574
-0.0146508
-0.0145591
-0.0143887
-0.0141487
-0.0138504
-0.013507
-0.0131321
-0.0127385
-0.0123368
-0.0119348
-0.0115365
-0.0111403
-0.010737
-0.0103072
-0.0098213
-0.009248
-0.00855884
-0.00779702
-0.00717896
-0.00676432
-0.00325609
-0.0034886
-0.00388522
-0.00444883
-0.0051998
-0.0060978
-0.00708272
-0.00810405
-0.00910191
-0.0100472
-0.0109223
-0.0117173
-0.0124275
-0.0130509
-0.0135865
-0.0140333
-0.0143902
-0.0146559
-0.0148295
-0.0149106
-0.0149005
-0.0148026
-0.0146229
-0.0143706
-0.0140582
-0.0136998
-0.0133105
-0.0129045
-0.0124937
-0.012087
-0.0116898
-0.0113026
-0.0109199
-0.0105264
-0.0100968
-0.00960109
-0.0090186
-0.00839243
-0.00788931
-0.00754236
-0.00366931
-0.00387239
-0.00424906
-0.0047927
-0.0055157
-0.00638124
-0.00733763
-0.0083304
-0.00930535
-0.0102339
-0.0110977
-0.0118862
-0.0125938
-0.0132177
-0.0137557
-0.0142061
-0.0145669
-0.014836
-0.0150117
-0.015093
-0.0150805
-0.0149772
-0.0147888
-0.0145248
-0.0141983
-0.0138247
-0.0134204
-0.0130011
-0.0125798
-0.0121663
-0.0117669
-0.0113838
-0.0110138
-0.0106463
-0.0102597
-0.00982522
-0.00932869
-0.00880884
-0.00839615
-0.00810429
-0.00397529
-0.00415425
-0.00450967
-0.00503291
-0.00572567
-0.00655701
-0.00748562
-0.00845185
-0.00940665
-0.0103215
-0.0111772
-0.0119623
-0.0126701
-0.0132967
-0.0138392
-0.0142948
-0.0146608
-0.0149345
-0.0151133
-0.0151957
-0.0151818
-0.0150738
-0.0148776
-0.0146027
-0.0142628
-0.0138745
-0.0134555
-0.0130228
-0.0125906
-0.0121693
-0.0117657
-0.0113826
-0.0110192
-0.0106686
-0.0103132
-0.00992591
-0.00949698
-0.00905925
-0.00871484
-0.00846634
-0.00417003
-0.00433169
-0.00466658
-0.00516881
-0.00583102
-0.00662659
-0.00752418
-0.00846567
-0.00940216
-0.0103055
-0.0111557
-0.0119398
-0.0126501
-0.0132815
-0.0138301
-0.0142924
-0.0146648
-0.0149439
-0.0151266
-0.0152108
-0.015196
-0.0150842
-0.0148811
-0.0145964
-0.0142444
-0.0138425
-0.0134099
-0.0129648
-0.0125222
-0.0120931
-0.0116843
-0.0112987
-0.0109366
-0.0105954
-0.0102614
-0.00991026
-0.00953424
-0.00915992
-0.00886337
-0.00864545
-0.00426929
-0.00441314
-0.00472598
-0.00520468
-0.00583615
-0.00659479
-0.00745442
-0.00837099
-0.00928987
-0.0101828
-0.0110288
-0.0118138
-0.0125284
-0.0131663
-0.0137226
-0.0141928
-0.0145727
-0.014858
-0.0150453
-0.0151318
-0.0151168
-0.015002
-0.0147931
-0.0145
-0.0141375
-0.013724
-0.0132797
-0.012824
-0.0123724
-0.0119363
-0.0115222
-0.0111327
-0.0107687
-0.0104298
-0.0101089
-0.00978462
-0.00944816
-0.00911956
-0.00886354
-0.00865961
-0.0042907
-0.00441488
-0.00470155
-0.00515082
-0.0057472
-0.00646755
-0.00728511
-0.00817007
-0.00906956
-0.00995163
-0.0107939
-0.0115807
-0.0123009
-0.0129467
-0.0135121
-0.0139916
-0.0143799
-0.0146725
-0.0148651
-0.0149548
-0.0149403
-0.0148237
-0.0146104
-0.0143107
-0.0139399
-0.0135173
-0.013064
-0.0126
-0.0121414
-0.0116996
-0.0112808
-0.0108869
-0.0105186
-0.0101774
-0.00986162
-0.00955635
-0.00924777
-0.00894695
-0.00873328
-0.00852692
-0.00425249
-0.00435555
-0.00461016
-0.00502158
-0.00557465
-0.00625061
-0.00702467
-0.00787063
-0.00874491
-0.00961304
-0.0104503
-0.0112387
-0.0119652
-0.0126203
-0.0131961
-0.0136862
-0.0140845
-0.0143855
-0.0145846
-0.0146785
-0.014666
-0.014549
-0.0143332
-0.0140293
-0.0136532
-0.0132246
-0.0127653
-0.0122959
-0.0118327
-0.0113869
-0.0109642
-0.010566
-0.0101918
-0.00984468
-0.00952826
-0.00923337
-0.00894453
-0.0086595
-0.00848483
-0.0082645
-0.00417484
-0.00425436
-0.00446913
-0.004833
-0.00533366
-0.00595547
-0.00667892
-0.00748003
-0.00832199
-0.00917093
-0.0100002
-0.010789
-0.0115219
-0.0121869
-0.0127746
-0.0132768
-0.0136867
-0.0139978
-0.0142052
-0.0143052
-0.0142967
-0.0141815
-0.0139659
-0.0136609
-0.0132828
-0.012852
-0.0123904
-0.0119188
-0.0114535
-0.0110053
-0.0105797
-0.0101771
-0.00979616
-0.0094403
-0.00911796
-0.00882569
-0.00854892
-0.00826956
-0.00814445
-0.00788244
-0.00407685
-0.00412885
-0.00429454
-0.00460053
-0.00503889
-0.00559685
-0.00625934
-0.00700714
-0.00780894
-0.00863232
-0.00944908
-0.010236
-0.0109745
-0.01165
-0.0122507
-0.0127669
-0.0131903
-0.0135139
-0.013732
-0.0138408
-0.013839
-0.0137289
-0.013517
-0.0132149
-0.0128392
-0.0124104
-0.0119505
-0.01148
-0.0110149
-0.0105657
-0.0101375
-0.00973026
-0.00934175
-0.00897507
-0.00864249
-0.00834601
-0.00807278
-0.00778623
-0.00772313
-0.00738664
-0.00397142
-0.00399159
-0.00409947
-0.00433781
-0.00470408
-0.00518864
-0.00578057
-0.00646547
-0.00721816
-0.00800837
-0.00880694
-0.00958823
-0.0103307
-0.0110165
-0.0116314
-0.0121636
-0.0126031
-0.012942
-0.013174
-0.013295
-0.0133039
-0.0132032
-0.0129996
-0.0127053
-0.012337
-0.0119151
-0.0114611
-0.0109948
-0.0105319
-0.0100824
-0.00965115
-0.00923828
-0.00884089
-0.00846134
-0.00811435
-0.00780739
-0.007532
-0.00722301
-0.00720152
-0.00677815
-0.003862
-0.00384775
-0.00389297
-0.00405603
-0.00434196
-0.00474431
-0.00525745
-0.00587119
-0.00656621
-0.00731518
-0.00808902
-0.00886
-0.00960362
-0.010299
-0.0109289
-0.0114789
-0.0119374
-0.012295
-0.0125448
-0.0126825
-0.0127069
-0.0126208
-0.0124312
-0.0121505
-0.0117953
-0.0113853
-0.0109412
-0.010482
-0.0100226
-0.00957266
-0.00913705
-0.00871639
-0.00830793
-0.00791301
-0.0075475
-0.00722588
-0.0069456
-0.00657572
-0.00657176
-0.00603829
-0.00374393
-0.00369622
-0.00368049
-0.00376441
-0.00396334
-0.0042766
-0.0047045
-0.00524136
-0.0058724
-0.00657362
-0.00731661
-0.00807246
-0.00881406
-0.00951746
-0.0101623
-0.0107316
-0.0112117
-0.0115917
-0.0118637
-0.0120231
-0.0120685
-0.0120027
-0.0118338
-0.0115729
-0.0112364
-0.0108432
-0.0104128
-0.0099629
-0.00950759
-0.00905624
-0.00861397
-0.00818238
-0.00775936
-0.00734567
-0.00695728
-0.00661717
-0.00632731
-0.00582975
-0.00584567
-0.00510968
-0.00361044
-0.00353518
-0.00346564
-0.00347032
-0.00357748
-0.00379719
-0.0041362
-0.00459335
-0.00515728
-0.0058072
-0.00651557
-0.00725264
-0.00798935
-0.00869905
-0.00935846
-0.00994802
-0.0104518
-0.0108573
-0.0111558
-0.0113418
-0.011414
-0.011375
-0.0112324
-0.0109972
-0.0106848
-0.0103127
-0.009899
-0.00945998
-0.00900885
-0.00855468
-0.00810292
-0.00765612
-0.00721345
-0.00677611
-0.00635931
-0.00598755
-0.00565089
-0.00501547
-0.00502825
-0.00393732
-0.0034591
-0.00336652
-0.00325155
-0.00317912
-0.00319261
-0.00331677
-0.00356629
-0.0039442
-0.00444174
-0.00504013
-0.0057131
-0.00643023
-0.00716066
-0.00787554
-0.00854913
-0.00915944
-0.00968846
-0.0101222
-0.0104505
-0.0106676
-0.0107713
-0.0107642
-0.0106532
-0.0104488
-0.0101649
-0.00981754
-0.009423
-0.00899618
-0.00854925
-0.00809087
-0.0076266
-0.00715954
-0.00669053
-0.00622141
-0.00576737
-0.00534715
-0.00492971
-0.00410966
-0.00414728
-0.00247384
-0.00329459
-0.00319544
-0.00304086
-0.00289363
-0.00281407
-0.00284401
-0.00300682
-0.0033094
-0.00374507
-0.00429594
-0.00493606
-0.00563462
-0.00635943
-0.00707968
-0.00776758
-0.00839906
-0.0089543
-0.00941782
-0.00977847
-0.0100295
-0.0101683
-0.0101969
-0.0101213
-0.0099518
-0.00969955
-0.00937981
-0.00900694
-0.00859402
-0.00815195
-0.00768858
-0.00720897
-0.00671601
-0.00621202
-0.00569897
-0.00519042
-0.00469287
-0.00415108
-0.00309755
-0.00316842
-0.000700692
-0.00312384
-0.00302694
-0.00283559
-0.00261518
-0.00244622
-0.00238681
-0.0024694
-0.00270458
-0.00308642
-0.00359733
-0.00421065
-0.00489452
-0.00561562
-0.00634218
-0.00704467
-0.00769734
-0.00827889
-0.00877263
-0.00916649
-0.00945291
-0.00962882
-0.00969547
-0.00965808
-0.0095251
-0.00930841
-0.0090194
-0.00867093
-0.0082744
-0.00783878
-0.00737059
-0.00687363
-0.00634927
-0.00579977
-0.00522474
-0.00463378
-0.00400891
-0.00327927
-0.00198019
-0.00185077
0.00144663
-0.00296184
-0.00286572
-0.00263635
-0.00234224
-0.00208993
-0.00194989
-0.00196259
-0.00214126
-0.00247995
-0.00295987
-0.00355359
-0.004228
-0.00494835
-0.005682
-0.0063988
-0.00707197
-0.0076792
-0.00820294
-0.00863036
-0.00895328
-0.009168
-0.00927502
-0.00927854
-0.00918592
-0.00900659
-0.0087507
-0.00842876
-0.00805065
-0.00762268
-0.00714935
-0.00663246
-0.00606903
-0.00545785
-0.00478881
-0.00406192
-0.00322177
-0.00219332
-0.00053468
0.000162835
0.00439189
-0.00283684
-0.00272446
-0.00245237
-0.00207838
-0.00174899
-0.00153779
-0.00149012
-0.00162133
-0.00192487
-0.00238013
-0.00295872
-0.003627
-0.00434966
-0.00509237
-0.00582429
-0.00651859
-0.00715245
-0.0077077
-0.00817079
-0.00853278
-0.00878906
-0.00893908
-0.00898574
-0.00893508
-0.00879462
-0.00857284
-0.00827778
-0.00791614
-0.0074933
-0.00701044
-0.00646704
-0.00585086
-0.00515113
-0.00433242
-0.0033715
-0.00214905
-0.000585887
0.00179384
0.00363181
0.00951632
-0.00279078
-0.00262731
-0.00226929
-0.00181459
-0.00139949
-0.00112107
-0.00101845
-0.00110741
-0.00138104
-0.00181745
-0.00238693
-0.00305544
-0.00378742
-0.00454898
-0.00530762
-0.00603307
-0.00670093
-0.00729267
-0.00779442
-0.00819696
-0.00849482
-0.00868664
-0.00877397
-0.00876161
-0.00865528
-0.00846195
-0.00818796
-0.00783888
-0.00741751
-0.00691875
-0.00633385
-0.00564072
-0.00481121
-0.00376082
-0.00241878
-0.000540009
0.00198742
0.00584571
0.010106
0.0196825
-0.00298064
-0.00267884
-0.00216394
-0.00158973
-0.00109113
-0.00074728
-0.000597411
-0.000654286
-0.000908983
-0.00133761
-0.00190828
-0.00258566
-0.00333227
-0.00411312
-0.00489633
-0.00565228
-0.00635474
-0.00698354
-0.00752298
-0.00796294
-0.00829666
-0.00852255
-0.00864092
-0.00865595
-0.00857193
-0.00839559
-0.00813144
-0.00778379
-0.00735177
-0.00682562
-0.00618887
-0.005398
-0.00439731
-0.00303949
-0.00116827
0.0016786
0.00575968
0.012408
0.0214277
0.0378961
-0.00384603
-0.0028802
-0.00205615
-0.00132428
-0.000735591
-0.000334212
-0.000151096
-0.000194178
-0.000448773
-0.000886557
-0.00147251
-0.00216978
-0.0029395
-0.00374478
-0.00455247
-0.00533498
-0.00606583
-0.00672425
-0.00729232
-0.00775969
-0.00811774
-0.00836567
-0.00850196
-0.00853245
-0.00845887
-0.00829019
-0.00802673
-0.00767442
-0.00722487
-0.00667239
-0.00598808
-0.0051252
-0.0039788
-0.00235907
5.44462e-05
0.00404094
0.0103475
0.0214325
0.0380902
0.064262
-0.00566184
-0.00179947
-0.000636202
-6.15398e-05
0.000429744
0.000782014
0.000910238
0.000795466
0.000462723
-4.97336e-05
-0.000703152
-0.00146065
-0.00228531
-0.00314113
-0.0039946
-0.00481707
-0.00558348
-0.00627246
-0.00686753
-0.00735681
-0.00773425
-0.00799665
-0.00814621
-0.00818505
-0.00812008
-0.00795404
-0.00769361
-0.00733485
-0.00687493
-0.0062902
-0.00555315
-0.00460808
-0.00340547
-0.00173642
0.00102863
0.00591475
0.0151839
0.0314504
0.0573362
0.0904297
)
;

boundaryField
{
    movingWall
    {
        type            zeroGradient;
    }
    fixedWalls
    {
        type            zeroGradient;
    }
    frontAndBack
    {
        type            empty;
    }
}


// ************************************************************************* //
