/*--------------------------------*- C++ -*----------------------------------*\
  =========                 |
  \\      /  F ield         | OpenFOAM: The Open Source CFD Toolbox
   \\    /   O peration     | Website:  https://openfoam.org
    \\  /    A nd           | Version:  12
     \\/     M anipulation  |
\*---------------------------------------------------------------------------*/
FoamFile
{
    format      ascii;
    class       surfaceScalarField;
    location    "3";
    object      phi;
}
// * * * * * * * * * * * * * * * * * * * * * * * * * * * * * * * * * * * * * //

dimensions      [0 3 -1 0 0 0 0];

internalField   nonuniform List<scalar> 
3120
(
5.68771e-08
-5.68792e-08
1.41814e-07
-8.49366e-08
2.14294e-07
-7.24801e-08
2.57575e-07
-4.32811e-08
2.74378e-07
-1.68035e-08
2.73165e-07
1.21256e-09
2.61574e-07
1.15918e-08
2.42852e-07
1.87219e-08
2.15305e-07
2.75463e-08
1.73911e-07
4.13943e-08
1.09547e-07
6.43639e-08
-9.45716e-09
1.19004e-07
-2.03157e-07
1.93699e-07
-4.94564e-07
2.91408e-07
-8.78557e-07
3.83993e-07
-1.29995e-06
4.21389e-07
-1.70279e-06
4.02848e-07
-2.0643e-06
3.61502e-07
-2.37355e-06
3.09255e-07
-2.62903e-06
2.55475e-07
-2.83021e-06
2.01184e-07
-2.97779e-06
1.47579e-07
-3.07087e-06
9.3075e-08
-3.10923e-06
3.83657e-08
-3.08828e-06
-2.09526e-08
-3.00578e-06
-8.24936e-08
-2.85857e-06
-1.47215e-07
-2.6384e-06
-2.20167e-07
-2.34362e-06
-2.94783e-07
-1.97081e-06
-3.72814e-07
-1.52152e-06
-4.49286e-07
-1.01254e-06
-5.08976e-07
-4.81466e-07
-5.31078e-07
1.45424e-08
-4.96008e-07
4.14557e-07
-4.00015e-07
5.91894e-07
-1.77337e-07
5.20515e-07
7.13791e-08
3.37335e-07
1.8318e-07
1.39224e-07
1.98111e-07
1.39224e-07
9.40379e-08
-1.50917e-07
2.024e-07
-1.93298e-07
2.75174e-07
-1.45254e-07
3.06518e-07
-7.4625e-08
3.01724e-07
-1.20096e-08
2.62766e-07
4.01705e-08
1.92969e-07
8.13886e-08
8.67809e-08
1.2491e-07
-7.7914e-08
1.92241e-07
-3.35911e-07
2.99391e-07
-7.11536e-07
4.39989e-07
-1.18883e-06
5.96296e-07
-1.71563e-06
7.20502e-07
-2.2181e-06
7.9388e-07
-2.63754e-06
8.0343e-07
-2.98046e-06
7.64308e-07
-3.27382e-06
6.96212e-07
-3.52024e-06
6.07921e-07
-3.72133e-06
5.1034e-07
-3.87705e-06
4.112e-07
-3.9881e-06
3.1223e-07
-4.05477e-06
2.14254e-07
-4.07896e-06
1.17264e-07
-4.05552e-06
1.49224e-08
-3.98898e-06
-8.74941e-08
-3.87234e-06
-1.9913e-07
-3.70023e-06
-3.19326e-07
-3.46925e-06
-4.51151e-07
-3.16936e-06
-5.94667e-07
-2.79805e-06
-7.44126e-07
-2.35571e-06
-8.9163e-07
-1.84613e-06
-1.01855e-06
-1.28841e-06
-1.0888e-06
-7.1337e-07
-1.07104e-06
-2.04997e-07
-9.08387e-07
1.78554e-07
-5.60888e-07
3.1774e-07
-6.78074e-08
2.64009e-07
2.36912e-07
1.22331e-07
3.39788e-07
2.61555e-07
1.00857e-07
-2.51774e-07
1.74222e-07
-2.66664e-07
1.99972e-07
-1.71004e-07
1.82219e-07
-5.68727e-08
1.20486e-07
4.97239e-08
8.67065e-09
1.51986e-07
-1.73797e-07
2.63856e-07
-4.52299e-07
4.03412e-07
-8.40358e-07
5.803e-07
-1.32102e-06
7.80049e-07
-1.84055e-06
9.59521e-07
-2.32648e-06
1.08223e-06
-2.75032e-06
1.14434e-06
-3.10041e-06
1.14397e-06
-3.3851e-06
1.08812e-06
-3.61669e-06
9.95895e-07
-3.80401e-06
8.83531e-07
-3.95515e-06
7.59064e-07
-4.07362e-06
6.28811e-07
-4.1628e-06
5.00376e-07
-4.22343e-06
3.72858e-07
-4.25604e-06
2.46865e-07
-4.25776e-06
1.18989e-07
-4.22831e-06
-1.45228e-08
-4.16702e-06
-1.48787e-07
-4.07242e-06
-2.93736e-07
-3.94012e-06
-4.51626e-07
-3.76629e-06
-6.24974e-07
-3.54481e-06
-8.16154e-07
-3.26527e-06
-1.02367e-06
-2.92e-06
-1.23689e-06
-2.50135e-06
-1.4372e-06
-2.01099e-06
-1.57917e-06
-1.46869e-06
-1.61334e-06
-9.02525e-07
-1.47455e-06
-3.81061e-07
-1.08235e-06
-3.58097e-08
-4.13058e-07
5.66486e-08
1.44453e-07
3.64248e-08
3.60012e-07
2.9798e-07
7.28123e-08
-3.24587e-07
8.8185e-08
-2.82036e-07
4.93406e-08
-1.32159e-07
-3.80301e-08
3.04979e-08
-1.85002e-07
1.96696e-07
-4.09901e-07
3.76885e-07
-7.29346e-07
5.83301e-07
-1.14256e-06
8.16621e-07
-1.61952e-06
1.05727e-06
-2.10823e-06
1.26876e-06
-2.55508e-06
1.40636e-06
-2.92905e-06
1.4562e-06
-3.22584e-06
1.44113e-06
-3.45717e-06
1.37529e-06
-3.64008e-06
1.27104e-06
-3.78665e-06
1.14246e-06
-3.90273e-06
9.99614e-07
-3.99688e-06
8.5321e-07
-4.07393e-06
7.05864e-07
-4.13188e-06
5.58322e-07
-4.169e-06
4.09977e-07
-4.18534e-06
2.63204e-07
-4.18024e-06
1.1389e-07
-4.15539e-06
-3.93722e-08
-4.10843e-06
-1.95747e-07
-4.03802e-06
-3.64139e-07
-3.94177e-06
-5.47885e-07
-3.81652e-06
-7.50216e-07
-3.66006e-06
-9.72614e-07
-3.46837e-06
-1.21536e-06
-3.23504e-06
-1.47022e-06
-2.94682e-06
-1.72542e-06
-2.57371e-06
-1.95228e-06
-2.10664e-06
-2.08041e-06
-1.55205e-06
-2.02914e-06
-9.35261e-07
-1.69914e-06
-3.61099e-07
-9.8722e-07
-9.27371e-08
-1.23909e-07
-1.19141e-08
2.79189e-07
2.86066e-07
2.04306e-08
-3.45017e-07
-3.64853e-08
-2.2512e-07
-1.48621e-07
-2.00239e-08
-3.15289e-07
1.97167e-07
-5.53493e-07
4.349e-07
-8.7578e-07
6.99171e-07
-1.27693e-06
9.84449e-07
-1.72931e-06
1.269e-06
-2.18673e-06
1.51469e-06
-2.59274e-06
1.67476e-06
-2.92011e-06
1.73373e-06
-3.17782e-06
1.71391e-06
-3.3772e-06
1.64052e-06
-3.52996e-06
1.52806e-06
-3.64905e-06
1.39012e-06
-3.74443e-06
1.23784e-06
-3.82132e-06
1.07651e-06
-3.8783e-06
9.10191e-07
-3.91644e-06
7.44001e-07
-3.9374e-06
5.79275e-07
-3.9452e-06
4.17782e-07
-3.94037e-06
2.5837e-07
-3.92465e-06
9.81687e-08
-3.89892e-06
-6.50936e-08
-3.86055e-06
-2.34127e-07
-3.80976e-06
-4.14923e-07
-3.74588e-06
-6.11769e-07
-3.66709e-06
-8.28999e-07
-3.56984e-06
-1.06987e-06
-3.44959e-06
-1.33561e-06
-3.29821e-06
-1.62161e-06
-3.10846e-06
-1.91516e-06
-2.86512e-06
-2.19562e-06
-2.53081e-06
-2.41472e-06
-2.06994e-06
-2.49001e-06
-1.46963e-06
-2.29946e-06
-7.41016e-07
-1.71583e-06
-1.78486e-07
-6.86439e-07
-1.03672e-08
1.1107e-07
2.75698e-07
-5.13972e-08
-2.9362e-07
-1.82829e-07
-9.36889e-08
-3.63917e-07
1.61065e-07
-6.03603e-07
4.36852e-07
-9.13936e-07
7.45233e-07
-1.29149e-06
1.07672e-06
-1.71259e-06
1.40556e-06
-2.13705e-06
1.69346e-06
-2.51337e-06
1.89101e-06
-2.81132e-06
1.97271e-06
-3.03893e-06
1.96135e-06
-3.21343e-06
1.88841e-06
-3.34525e-06
1.77234e-06
-3.44365e-06
1.62646e-06
-3.51606e-06
1.46253e-06
-3.56594e-06
1.28772e-06
-3.59752e-06
1.1081e-06
-3.61492e-06
9.27584e-07
-3.6214e-06
7.50485e-07
-3.61905e-06
5.76925e-07
-3.60839e-06
4.0712e-07
-3.59002e-06
2.40001e-07
-3.56515e-06
7.32942e-08
-3.53465e-06
-9.55851e-08
-3.49856e-06
-2.70224e-07
-3.45814e-06
-4.55343e-07
-3.4141e-06
-6.55806e-07
-3.36634e-06
-8.76762e-07
-3.31337e-06
-1.12284e-06
-3.25199e-06
-1.39699e-06
-3.17545e-06
-1.69814e-06
-3.07157e-06
-2.01905e-06
-2.92597e-06
-2.34122e-06
-2.71376e-06
-2.62693e-06
-2.38787e-06
-2.81591e-06
-1.89282e-06
-2.79451e-06
-1.19207e-06
-2.41658e-06
-3.90762e-07
-1.48774e-06
-2.55461e-08
-2.54146e-07
2.50152e-07
-1.25147e-07
-1.68474e-07
-3.23198e-07
1.04363e-07
-5.64382e-07
4.02249e-07
-8.59844e-07
7.32313e-07
-1.21141e-06
1.0968e-06
-1.60091e-06
1.46622e-06
-1.99619e-06
1.80084e-06
-2.35179e-06
2.04906e-06
-2.63292e-06
2.17214e-06
-2.84211e-06
2.1819e-06
-2.99812e-06
2.11736e-06
-3.11247e-06
2.00276e-06
-3.19309e-06
1.85296e-06
-3.24737e-06
1.68073e-06
-3.28073e-06
1.49589e-06
-3.29772e-06
1.30472e-06
-3.30219e-06
1.11256e-06
-3.29738e-06
9.22777e-07
-3.28464e-06
7.37743e-07
-3.26528e-06
5.5757e-07
-3.24026e-06
3.82094e-07
-3.21043e-06
2.10173e-07
-3.17704e-06
3.99024e-08
-3.14113e-06
-1.31492e-07
-3.10412e-06
-3.07239e-07
-3.06773e-06
-4.91726e-07
-3.03357e-06
-6.89966e-07
-3.00278e-06
-9.07557e-07
-2.97548e-06
-1.15013e-06
-2.95004e-06
-1.42243e-06
-2.92161e-06
-1.72658e-06
-2.88107e-06
-2.05958e-06
-2.81329e-06
-2.40899e-06
-2.69321e-06
-2.74701e-06
-2.48679e-06
-3.02233e-06
-2.13344e-06
-3.14786e-06
-1.56949e-06
-2.98053e-06
-7.30302e-07
-2.32693e-06
-8.53058e-08
-8.99143e-07
1.64846e-07
-1.89015e-07
2.05417e-08
-4.39249e-07
3.54596e-07
-7.25475e-07
6.88475e-07
-1.05409e-06
1.06093e-06
-1.41533e-06
1.45804e-06
-1.78531e-06
1.8362e-06
-2.12738e-06
2.14292e-06
-2.4039e-06
2.32558e-06
-2.60625e-06
2.37449e-06
-2.75265e-06
2.3283e-06
-2.85752e-06
2.22222e-06
-2.9285e-06
2.07373e-06
-2.97279e-06
1.89726e-06
-2.99681e-06
1.70475e-06
-3.00522e-06
1.5043e-06
-3.00196e-06
1.30145e-06
-2.98989e-06
1.1005e-06
-2.97103e-06
9.03917e-07
-2.94633e-06
7.13043e-07
-2.91667e-06
5.27909e-07
-2.88276e-06
3.48181e-07
-2.84534e-06
1.72755e-07
-2.80592e-06
4.78014e-10
-2.76527e-06
-1.72139e-07
-2.72562e-06
-3.46891e-07
-2.68914e-06
-5.28207e-07
-2.65818e-06
-7.20922e-07
-2.63492e-06
-9.30825e-07
-2.6207e-06
-1.16435e-06
-2.61523e-06
-1.42789e-06
-2.61542e-06
-1.72639e-06
-2.61399e-06
-2.061e-06
-2.5974e-06
-2.42559e-06
-2.54336e-06
-2.80106e-06
-2.41928e-06
-3.14641e-06
-2.17977e-06
-3.38736e-06
-1.76499e-06
-3.39531e-06
-1.08845e-06
-3.00347e-06
-2.39314e-07
-1.74828e-06
-7.44676e-08
-2.32807e-07
2.53349e-07
-5.22204e-07
6.43993e-07
-8.35144e-07
1.00141e-06
-1.1723e-06
1.39809e-06
-1.51962e-06
1.80535e-06
-1.85171e-06
2.16829e-06
-2.13203e-06
2.42324e-06
-2.33996e-06
2.5335e-06
-2.48633e-06
2.52086e-06
-2.58924e-06
2.43122e-06
-2.65801e-06
2.29099e-06
-2.69946e-06
2.11519e-06
-2.72042e-06
1.91821e-06
-2.72613e-06
1.71046e-06
-2.7205e-06
1.49867e-06
-2.70661e-06
1.28756e-06
-2.68642e-06
1.08031e-06
-2.66107e-06
8.78566e-07
-2.63109e-06
6.83064e-07
-2.59691e-06
4.9373e-07
-2.55893e-06
3.10199e-07
-2.51781e-06
1.31638e-07
-2.47415e-06
-4.31828e-08
-2.42994e-06
-2.16348e-07
-2.38675e-06
-3.90077e-07
-2.34715e-06
-5.67807e-07
-2.31408e-06
-7.53998e-07
-2.29055e-06
-9.5435e-07
-2.27912e-06
-1.17579e-06
-2.28096e-06
-1.42605e-06
-2.29474e-06
-1.71261e-06
-2.31515e-06
-2.0406e-06
-2.33113e-06
-2.40961e-06
-2.32293e-06
-2.80926e-06
-2.25977e-06
-3.20957e-06
-2.09941e-06
-3.54772e-06
-1.80844e-06
-3.68628e-06
-1.31328e-06
-3.49864e-06
-4.52079e-07
-2.60947e-06
-5.26546e-07
-2.60365e-07
5.13714e-07
-5.68196e-07
9.51824e-07
-8.89112e-07
1.32233e-06
-1.21707e-06
1.72605e-06
-1.53695e-06
2.12522e-06
-1.82314e-06
2.45449e-06
-2.0454e-06
2.64549e-06
-2.20185e-06
2.68995e-06
-2.31005e-06
2.62906e-06
-2.383e-06
2.50417e-06
-2.42775e-06
2.33573e-06
-2.45111e-06
2.13855e-06
-2.45902e-06
1.92612e-06
-2.45574e-06
1.70718e-06
-2.44443e-06
1.48736e-06
-2.42722e-06
1.27036e-06
-2.40527e-06
1.05835e-06
-2.37906e-06
8.52355e-07
-2.3487e-06
6.52707e-07
-2.31424e-06
4.59268e-07
-2.27575e-06
2.71712e-07
-2.23358e-06
8.94645e-08
-2.18836e-06
-8.84021e-08
-2.14149e-06
-2.63212e-07
-2.09479e-06
-4.36776e-07
-2.05081e-06
-6.11789e-07
-2.01273e-06
-7.92082e-07
-1.98411e-06
-9.82967e-07
-1.96841e-06
-1.19148e-06
-1.96813e-06
-1.42633e-06
-1.98359e-06
-1.69715e-06
-2.01148e-06
-2.01272e-06
-2.04319e-06
-2.37789e-06
-2.0627e-06
-2.78975e-06
-2.0426e-06
-3.22967e-06
-1.94306e-06
-3.64726e-06
-1.72786e-06
-3.90148e-06
-1.34799e-06
-3.87851e-06
-6.71586e-07
-3.28588e-06
-1.19813e-06
-2.69457e-07
7.83171e-07
-5.79845e-07
1.26221e-06
-8.92794e-07
1.63528e-06
-1.19919e-06
2.03245e-06
-1.48447e-06
2.4105e-06
-1.72426e-06
2.69428e-06
-1.89859e-06
2.81982e-06
-2.01963e-06
2.81099e-06
-2.10203e-06
2.71146e-06
-2.15516e-06
2.55731e-06
-2.18548e-06
2.36606e-06
-2.19944e-06
2.15251e-06
-2.20193e-06
1.92862e-06
-2.19638e-06
1.70163e-06
-2.18512e-06
1.47609e-06
-2.16945e-06
1.25469e-06
-2.14989e-06
1.0388e-06
-2.12646e-06
8.28921e-07
-2.09889e-06
6.25132e-07
-2.06688e-06
4.27259e-07
-2.03022e-06
2.35059e-07
-1.98902e-06
4.82647e-08
-1.9438e-06
-1.33627e-07
-1.89566e-06
-3.11352e-07
-1.84632e-06
-4.86114e-07
-1.79822e-06
-6.59891e-07
-1.75451e-06
-8.35792e-07
-1.71897e-06
-1.01851e-06
-1.69562e-06
-1.21482e-06
-1.68804e-06
-1.43391e-06
-1.69807e-06
-1.68712e-06
-1.72422e-06
-1.98656e-06
-1.76e-06
-2.34212e-06
-1.79263e-06
-2.75711e-06
-1.79947e-06
-3.22283e-06
-1.74287e-06
-3.70387e-06
-1.56629e-06
-4.07806e-06
-1.26362e-06
-4.18117e-06
-7.63124e-07
-3.78638e-06
-1.96126e-06
-2.62356e-07
1.04553e-06
-5.61436e-07
1.56129e-06
-8.55262e-07
1.9291e-06
-1.13346e-06
2.31065e-06
-1.38299e-06
2.66002e-06
-1.57845e-06
2.88974e-06
-1.71723e-06
2.9586e-06
-1.81364e-06
2.90739e-06
-1.87863e-06
2.77646e-06
-1.91954e-06
2.59821e-06
-1.9425e-06
2.38902e-06
-1.95312e-06
2.16313e-06
-1.95534e-06
1.93084e-06
-1.95178e-06
1.69807e-06
-1.94402e-06
1.46832e-06
-1.93273e-06
1.2434e-06
-1.91795e-06
1.02401e-06
-1.89927e-06
8.10247e-07
-1.87614e-06
6.01997e-07
-1.84799e-06
3.99113e-07
-1.81445e-06
2.01516e-07
-1.77544e-06
9.25931e-09
-1.73137e-06
-1.77701e-07
-1.68318e-06
-3.59536e-07
-1.63245e-06
-5.36845e-07
-1.58141e-06
-7.10931e-07
-1.53302e-06
-8.84187e-07
-1.49092e-06
-1.06061e-06
-1.45934e-06
-1.24641e-06
-1.44249e-06
-1.45076e-06
-1.44355e-06
-1.68607e-06
-1.46283e-06
-1.96728e-06
-1.49585e-06
-2.30909e-06
-1.53201e-06
-2.72096e-06
-1.55282e-06
-3.20202e-06
-1.52811e-06
-3.72859e-06
-1.39199e-06
-4.21418e-06
-1.14509e-06
-4.42807e-06
-7.02929e-07
-4.22853e-06
-2.66419e-06
-2.42486e-07
1.28801e-06
-5.20238e-07
1.83904e-06
-7.88226e-07
2.19709e-06
-1.03453e-06
2.55696e-06
-1.24661e-06
2.8721e-06
-1.4037e-06
3.04683e-06
-1.51777e-06
3.07267e-06
-1.59678e-06
2.98641e-06
-1.65025e-06
2.82992e-06
-1.68433e-06
2.63229e-06
-1.70461e-06
2.4093e-06
-1.71571e-06
2.17423e-06
-1.72068e-06
1.9358e-06
-1.72142e-06
1.69881e-06
-1.71889e-06
1.4658e-06
-1.71327e-06
1.23779e-06
-1.70421e-06
1.01494e-06
-1.69102e-06
7.97062e-07
-1.67293e-06
5.83905e-07
-1.64921e-06
3.75392e-07
-1.61937e-06
1.7168e-07
-1.58324e-06
-2.68692e-08
-1.54115e-06
-2.19794e-07
-1.49395e-06
-4.06737e-07
-1.44309e-06
-5.87704e-07
-1.39064e-06
-7.63385e-07
-1.33928e-06
-9.35542e-07
-1.29239e-06
-1.1075e-06
-1.25397e-06
-1.28483e-06
-1.22848e-06
-1.47626e-06
-1.21996e-06
-1.69458e-06
-1.23044e-06
-1.9568e-06
-1.25752e-06
-2.28202e-06
-1.29235e-06
-2.68613e-06
-1.31926e-06
-3.1751e-06
-1.31228e-06
-3.73557e-06
-1.21663e-06
-4.30983e-06
-9.9589e-07
-4.64881e-06
-6.21472e-07
-4.60295e-06
-3.28566e-06
-2.13838e-07
1.50185e-06
-4.62851e-07
2.08806e-06
-7.00236e-07
2.43448e-06
-9.1239e-07
2.76911e-06
-1.0881e-06
3.04782e-06
-1.21638e-06
3.17511e-06
-1.31072e-06
3.16701e-06
-1.37696e-06
3.05264e-06
-1.42287e-06
2.87584e-06
-1.45361e-06
2.66304e-06
-1.47397e-06
2.42966e-06
-1.48755e-06
2.18782e-06
-1.49665e-06
1.9449e-06
-1.50255e-06
1.70471e-06
-1.5057e-06
1.46895e-06
-1.50592e-06
1.23801e-06
-1.5026e-06
1.01162e-06
-1.49488e-06
7.89341e-07
-1.48184e-06
5.70873e-07
-1.46268e-06
3.56224e-07
-1.4368e-06
1.45804e-07
-1.40399e-06
-5.96762e-08
-1.36451e-06
-2.59275e-07
-1.31916e-06
-4.52084e-07
-1.26934e-06
-6.37532e-07
-1.21698e-06
-8.15745e-07
-1.16457e-06
-9.87948e-07
-1.11515e-06
-1.15692e-06
-1.07235e-06
-1.32763e-06
-1.04042e-06
-1.50819e-06
-1.0238e-06
-1.71121e-06
-1.02579e-06
-1.95481e-06
-1.04608e-06
-2.26173e-06
-1.07794e-06
-2.65427e-06
-1.10763e-06
-3.14541e-06
-1.11172e-06
-3.73147e-06
-1.05308e-06
-4.36847e-06
-8.57066e-07
-4.84482e-06
-5.35925e-07
-4.92409e-06
-3.82158e-06
-1.79087e-07
1.68094e-06
-3.94584e-07
2.30355e-06
-5.98309e-07
2.6382e-06
-7.77142e-07
2.94794e-06
-9.19392e-07
3.19007e-06
-1.02419e-06
3.27992e-06
-1.10209e-06
3.2449e-06
-1.1586e-06
3.10916e-06
-1.19944e-06
2.91667e-06
-1.22877e-06
2.69237e-06
-1.25045e-06
2.45134e-06
-1.2672e-06
2.20457e-06
-1.28064e-06
1.95833e-06
-1.29152e-06
1.7156e-06
-1.29995e-06
1.47737e-06
-1.30549e-06
1.24355e-06
-1.30738e-06
1.01351e-06
-1.30468e-06
7.86649e-07
-1.29644e-06
5.62627e-07
-1.28175e-06
3.4154e-07
-1.25998e-06
1.24036e-07
-1.23086e-06
-8.87995e-08
-1.19458e-06
-2.95555e-07
-1.15191e-06
-4.94757e-07
-1.1042e-06
-6.8524e-07
-1.05335e-06
-8.6659e-07
-1.00173e-06
-1.03958e-06
-9.52077e-07
-1.20657e-06
-9.0764e-07
-1.37206e-06
-8.72241e-07
-1.54359e-06
-8.50251e-07
-1.7332e-06
-8.45739e-07
-1.95932e-06
-8.60191e-07
-2.24728e-06
-8.89119e-07
-2.62534e-06
-9.20039e-07
-3.11449e-06
-9.31853e-07
-3.71966e-06
-8.94529e-07
-4.4058e-06
-7.34983e-07
-5.00437e-06
-4.63767e-07
-5.19531e-06
-4.28535e-06
-1.41489e-07
1.82243e-06
-3.20437e-07
2.4825e-06
-4.89547e-07
2.80731e-06
-6.35365e-07
3.09376e-06
-7.46976e-07
3.30168e-06
-8.31445e-07
3.36439e-06
-8.9545e-07
3.30891e-06
-9.43933e-07
3.15764e-06
-9.80904e-07
2.95364e-06
-1.00954e-06
2.72101e-06
-1.03274e-06
2.47454e-06
-1.05241e-06
2.22424e-06
-1.06959e-06
1.97551e-06
-1.08465e-06
1.73066e-06
-1.09742e-06
1.49015e-06
-1.10735e-06
1.25347e-06
-1.11362e-06
1.01979e-06
-1.1153e-06
7.8833e-07
-1.11141e-06
5.58737e-07
-1.10105e-06
3.31178e-07
-1.08351e-06
1.06495e-07
-1.05845e-06
-1.1386e-07
-1.026e-06
-3.28007e-07
-9.86867e-07
-5.33889e-07
-9.42386e-07
-7.2972e-07
-8.94438e-07
-9.14538e-07
-8.45314e-07
-1.0887e-06
-7.97596e-07
-1.25429e-06
-7.54167e-07
-1.41549e-06
-7.18385e-07
-1.57937e-06
-6.94282e-07
-1.7573e-06
-6.86226e-07
-1.96737e-06
-6.97106e-07
-2.2364e-06
-7.24682e-07
-2.59777e-06
-7.58241e-07
-3.08093e-06
-7.79225e-07
-3.69867e-06
-7.61244e-07
-4.42378e-06
-6.32819e-07
-5.1328e-06
-3.95161e-07
-5.43297e-06
-4.68051e-06
-1.01496e-07
1.92392e-06
-2.42844e-07
2.62385e-06
-3.77572e-07
2.94204e-06
-4.90957e-07
3.20714e-06
-5.75457e-07
3.38618e-06
-6.41084e-07
3.43001e-06
-6.92521e-07
3.36034e-06
-7.33669e-07
3.19879e-06
-7.6706e-07
2.98703e-06
-7.94857e-07
2.7488e-06
-8.19018e-07
2.4987e-06
-8.40747e-07
2.24597e-06
-8.60596e-07
1.99536e-06
-8.78633e-07
1.74869e-06
-8.9454e-07
1.50605e-06
-9.07717e-07
1.26665e-06
-9.17383e-07
1.02945e-06
-9.22645e-07
7.93592e-07
-9.22574e-07
5.58665e-07
-9.16286e-07
3.24891e-07
-9.03049e-07
9.32583e-08
-8.82444e-07
-1.34465e-07
-8.54509e-07
-3.55942e-07
-8.19876e-07
-5.68522e-07
-7.79825e-07
-7.69771e-07
-7.36214e-07
-9.58149e-07
-6.91299e-07
-1.13362e-06
-6.47543e-07
-1.29804e-06
-6.07556e-07
-1.45548e-06
-5.74252e-07
-1.61267e-06
-5.51189e-07
-1.78036e-06
-5.42644e-07
-1.97592e-06
-5.52427e-07
-2.22662e-06
-5.80352e-07
-2.56984e-06
-6.17712e-07
-3.04357e-06
-6.47225e-07
-3.66916e-06
-6.42062e-07
-4.42894e-06
-5.50091e-07
-5.22477e-06
-3.47962e-07
-5.6351e-06
-5.02847e-06
-6.11571e-08
1.98508e-06
-1.64424e-07
2.72712e-06
-2.64982e-07
3.0426e-06
-3.47038e-07
3.2892e-06
-4.0692e-07
3.44606e-06
-4.54854e-07
3.47795e-06
-4.94062e-07
3.39955e-06
-5.27749e-07
3.23248e-06
-5.57132e-07
3.01641e-06
-5.83347e-07
2.77502e-06
-6.07455e-07
2.52281e-06
-6.30024e-07
2.26854e-06
-6.51206e-07
2.01654e-06
-6.70846e-07
1.76833e-06
-6.88545e-07
1.52375e-06
-7.03724e-07
1.28183e-06
-7.15677e-07
1.04141e-06
-7.23618e-07
8.01533e-07
-7.26712e-07
5.6176e-07
-7.24143e-07
3.22321e-07
-7.15194e-07
8.43098e-08
-6.99396e-07
-1.50263e-07
-6.76691e-07
-3.78648e-07
-6.47597e-07
-5.97616e-07
-6.13295e-07
-8.04073e-07
-5.75573e-07
-9.95871e-07
-5.36632e-07
-1.17256e-06
-4.98833e-07
-1.33584e-06
-4.64567e-07
-1.48975e-06
-4.36371e-07
-1.64087e-06
-4.17313e-07
-1.79942e-06
-4.11353e-07
-1.98188e-06
-4.22772e-07
-2.2152e-06
-4.53128e-07
-2.53948e-06
-4.95996e-07
-3.00071e-06
-5.35333e-07
-3.62982e-06
-5.43491e-07
-4.42078e-06
-4.78909e-07
-5.28935e-06
-3.06165e-07
-5.80784e-06
-5.33464e-06
-2.19772e-08
2.00706e-06
-8.65904e-08
2.79173e-06
-1.53681e-07
3.10969e-06
-2.05816e-07
3.34134e-06
-2.42836e-07
3.48308e-06
-2.734e-07
3.50851e-06
-3.00136e-07
3.42629e-06
-3.25717e-07
3.25806e-06
-3.50187e-07
3.04088e-06
-3.73694e-07
2.79853e-06
-3.96457e-07
2.54557e-06
-4.18471e-07
2.29055e-06
-4.3955e-07
2.03762e-06
-4.59369e-07
1.78815e-06
-4.7749e-07
1.54187e-06
-4.93391e-07
1.29773e-06
-5.06485e-07
1.0545e-06
-5.16127e-07
8.11175e-07
-5.2163e-07
5.67263e-07
-5.22298e-07
3.22989e-07
-5.17492e-07
7.95036e-08
-5.06745e-07
-1.61011e-07
-4.89927e-07
-3.95465e-07
-4.67426e-07
-6.20117e-07
-4.40267e-07
-8.31232e-07
-4.10092e-07
-1.02605e-06
-3.78974e-07
-1.20368e-06
-3.4914e-07
-1.36568e-06
-3.22779e-07
-1.51611e-06
-3.02097e-07
-1.66155e-06
-2.89702e-07
-1.81182e-06
-2.89135e-07
-1.98244e-06
-3.04806e-07
-2.19953e-06
-3.396e-07
-2.50469e-06
-3.89254e-07
-2.95105e-06
-4.38948e-07
-3.58013e-06
-4.62357e-07
-4.39737e-06
-4.22391e-07
-5.32932e-06
-2.75791e-07
-5.95444e-06
-5.61043e-06
2.01404e-08
1.98692e-06
-9.43872e-09
2.82131e-06
-4.46978e-08
3.14495e-06
-6.902e-08
3.36566e-06
-8.42766e-08
3.49833e-06
-9.69313e-08
3.52117e-06
-1.10755e-07
3.44011e-06
-1.27145e-07
3.27445e-06
-1.45436e-07
3.05917e-06
-1.6486e-07
2.81795e-06
-1.84842e-07
2.56555e-06
-2.04849e-07
2.31056e-06
-2.24388e-07
2.05716e-06
-2.42994e-07
1.80676e-06
-2.60218e-07
1.5591e-06
-2.75609e-07
1.31312e-06
-2.88718e-07
1.06761e-06
-2.99073e-07
8.2153e-07
-3.06171e-07
5.74361e-07
-3.09496e-07
3.26314e-07
-3.08552e-07
7.85598e-08
-3.0295e-07
-1.66614e-07
-2.92543e-07
-4.05872e-07
-2.776e-07
-6.3506e-07
-2.5895e-07
-8.49882e-07
-2.38008e-07
-1.04699e-06
-2.16612e-07
-1.22507e-06
-1.96767e-07
-1.38552e-06
-1.80425e-07
-1.53245e-06
-1.69484e-07
-1.67249e-06
-1.66126e-07
-1.81517e-06
-1.73451e-07
-1.97512e-06
-1.95779e-07
-2.1772e-06
-2.36966e-07
-2.4635e-06
-2.94787e-07
-2.89323e-06
-3.55559e-07
-3.51936e-06
-3.9434e-07
-4.35859e-06
-3.75297e-07
-5.34836e-06
-2.50103e-07
-6.07964e-06
-5.86053e-06
5.72452e-08
1.92967e-06
6.47031e-08
2.81385e-06
6.02431e-08
3.14941e-06
6.20658e-08
3.36384e-06
6.86027e-08
3.4918e-06
7.46572e-08
3.51511e-06
7.45105e-08
3.44026e-06
6.83047e-08
3.28065e-06
5.75914e-08
3.06989e-06
4.37651e-08
2.83178e-06
2.80734e-08
2.58125e-06
1.15261e-08
2.32711e-06
-5.10037e-09
2.07379e-06
-2.11951e-08
1.82285e-06
-3.62952e-08
1.5742e-06
-5.00479e-08
1.32687e-06
-6.21421e-08
1.0797e-06
-7.22898e-08
8.31678e-07
-8.02014e-08
5.82273e-07
-8.55812e-08
3.31694e-07
-8.81401e-08
8.11188e-08
-8.76381e-08
-1.67116e-07
-8.39849e-08
-4.09525e-07
-7.7372e-08
-6.41673e-07
-6.84352e-08
-8.58819e-07
-5.82966e-08
-1.05713e-06
-4.84661e-08
-1.2349e-06
-4.06072e-08
-1.39338e-06
-3.6325e-08
-1.53673e-06
-3.71753e-08
-1.67164e-06
-4.4962e-08
-1.80739e-06
-6.2363e-08
-1.95772e-06
-9.34794e-08
-2.14608e-06
-1.42849e-07
-2.41413e-06
-2.10112e-07
-2.82597e-06
-2.82768e-07
-3.4467e-06
-3.36997e-07
-4.30436e-06
-3.38713e-07
-5.34664e-06
-2.31138e-07
-6.18721e-06
-6.09167e-06
9.33804e-08
1.83629e-06
1.35121e-07
2.77211e-06
1.60055e-07
3.12447e-06
1.8655e-07
3.33734e-06
2.14744e-07
3.4636e-06
2.40084e-07
3.48977e-06
2.55308e-07
3.42503e-06
2.60594e-07
3.27537e-06
2.58969e-07
3.07151e-06
2.52325e-07
2.83842e-06
2.42456e-07
2.59111e-06
2.30803e-07
2.33876e-06
2.18421e-07
2.08617e-06
2.06035e-07
1.83524e-06
1.9412e-07
1.58611e-06
1.82973e-07
1.33802e-06
1.72765e-07
1.08991e-06
1.63596e-07
8.40846e-07
1.55533e-07
5.90336e-07
1.48625e-07
3.38603e-07
1.42912e-07
8.68316e-08
1.3842e-07
-1.62624e-07
1.35117e-07
-4.06222e-07
1.32819e-07
-6.39375e-07
1.31062e-07
-8.57062e-07
1.29045e-07
-1.05511e-06
1.25684e-07
-1.23154e-06
1.19777e-07
-1.38747e-06
1.10156e-07
-1.52711e-06
9.56632e-08
-1.65715e-06
7.48751e-08
-1.7866e-06
4.55157e-08
-1.92836e-06
3.71651e-09
-2.10428e-06
-5.53477e-08
-2.35507e-06
-1.33019e-07
-2.7483e-06
-2.18088e-07
-3.36163e-06
-2.87015e-07
-4.23544e-06
-3.08407e-07
-5.32525e-06
-2.1573e-07
-6.27989e-06
-6.3074e-06
1.27059e-07
1.70923e-06
2.01479e-07
2.69769e-06
2.53815e-07
3.07214e-06
3.03855e-07
3.2873e-06
3.53708e-07
3.41375e-06
3.97024e-07
3.44645e-06
4.29093e-07
3.39297e-06
4.48392e-07
3.25607e-06
4.57887e-07
3.06202e-06
4.60238e-07
2.83607e-06
4.57836e-07
2.59352e-06
4.52539e-07
2.34406e-06
4.45671e-07
2.09304e-06
4.38098e-07
1.84281e-06
4.3033e-07
1.59388e-06
4.22608e-07
1.34574e-06
4.14985e-07
1.09753e-06
4.07389e-07
8.48443e-07
3.99662e-07
5.98063e-07
3.916e-07
3.46665e-07
3.82982e-07
9.54497e-08
3.7359e-07
-1.53233e-07
3.63218e-07
-3.95849e-07
3.51622e-07
-6.27779e-07
3.3846e-07
-8.439e-07
3.23251e-07
-1.0399e-06
3.0538e-07
-1.21367e-06
2.84198e-07
-1.36629e-06
2.5909e-07
-1.502e-06
2.29386e-07
-1.62744e-06
1.94056e-07
-1.75127e-06
1.51197e-07
-1.8855e-06
9.72723e-08
-2.05036e-06
2.71218e-08
-2.28492e-06
-6.187e-08
-2.65931e-06
-1.60154e-07
-3.26335e-06
-2.43716e-07
-4.15188e-06
-2.82092e-07
-5.28687e-06
-2.05044e-07
-6.35694e-06
-6.51244e-06
1.56675e-07
1.55256e-06
2.61954e-07
2.59241e-06
3.40029e-07
2.99406e-06
4.12223e-07
3.21511e-06
4.82489e-07
3.34348e-06
5.44469e-07
3.38447e-06
5.95018e-07
3.34242e-06
6.30398e-07
3.22069e-06
6.5304e-07
3.03937e-06
6.66351e-07
2.82276e-06
6.73174e-07
2.58669e-06
6.75747e-07
2.34148e-06
6.75672e-07
2.09311e-06
6.73973e-07
1.84451e-06
6.71214e-07
1.59664e-06
6.67611e-07
1.34935e-06
6.63119e-07
1.10203e-06
6.57506e-07
8.54056e-07
6.50409e-07
6.05159e-07
6.41388e-07
3.55686e-07
6.29965e-07
1.06873e-07
6.1568e-07
-1.38948e-07
5.98125e-07
-3.78294e-07
5.76949e-07
-6.06603e-07
5.51883e-07
-8.18834e-07
5.22738e-07
-1.01076e-06
4.89397e-07
-1.18033e-06
4.51821e-07
-1.32871e-06
4.10017e-07
-1.4602e-06
3.63878e-07
-1.5813e-06
3.12825e-07
-1.70022e-06
2.55279e-07
-1.82795e-06
1.88006e-07
-1.98309e-06
1.05778e-07
-2.20269e-06
4.67939e-09
-2.55821e-06
-1.07296e-07
-3.15137e-06
-2.06065e-07
-4.05311e-06
-2.59785e-07
-5.23315e-06
-1.98023e-07
-6.4187e-06
-6.71047e-06
1.80693e-07
1.37187e-06
3.14285e-07
2.45882e-06
4.16506e-07
2.89184e-06
5.09535e-07
3.12208e-06
5.98989e-07
3.25403e-06
6.80545e-07
3.30292e-06
7.50175e-07
3.27279e-06
8.03672e-07
3.16719e-06
8.41837e-07
3.00121e-06
8.6837e-07
2.79622e-06
8.86461e-07
2.5686e-06
8.98644e-07
2.3293e-06
9.06778e-07
2.08498e-06
9.12073e-07
1.83922e-06
9.15185e-07
1.59352e-06
9.16333e-07
1.3482e-06
9.15406e-07
1.10295e-06
9.12043e-07
8.57419e-07
9.05711e-07
6.11491e-07
8.95758e-07
3.6564e-07
8.81472e-07
1.21158e-07
8.62171e-07
-1.19646e-07
8.37246e-07
-3.53369e-07
8.06225e-07
-5.75582e-07
7.68897e-07
-7.81506e-07
7.25353e-07
-9.67211e-07
6.75968e-07
-1.13094e-06
6.21329e-07
-1.27408e-06
5.62084e-07
-1.40095e-06
4.98705e-07
-1.51792e-06
4.31103e-07
-1.63261e-06
3.58077e-07
-1.75493e-06
2.76641e-07
-1.90165e-06
1.81555e-07
-2.1076e-06
6.80168e-08
-2.44467e-06
-5.79344e-08
-3.02542e-06
-1.71779e-07
-3.93926e-06
-2.38899e-07
-5.16603e-06
-1.94347e-07
-6.46325e-06
-6.90481e-06
1.97174e-07
1.17469e-06
3.55925e-07
2.30007e-06
4.80701e-07
2.76707e-06
5.93354e-07
3.00943e-06
7.01241e-07
3.14614e-06
8.02084e-07
3.20208e-06
8.91427e-07
3.18344e-06
9.64589e-07
3.09403e-06
1.02083e-06
2.94497e-06
1.06307e-06
2.75398e-06
1.09469e-06
2.53699e-06
1.11847e-06
2.30552e-06
1.13647e-06
2.06698e-06
1.15005e-06
1.82563e-06
1.16e-06
1.58358e-06
1.16656e-06
1.34163e-06
1.16961e-06
1.0999e-06
1.1687e-06
8.5833e-07
1.16316e-06
6.17029e-07
1.15217e-06
3.76629e-07
1.13483e-06
1.38503e-07
1.11025e-06
-9.50666e-08
1.07766e-06
-3.20784e-07
1.03651e-06
-5.34433e-07
9.86675e-07
-7.31667e-07
9.28524e-07
-9.0906e-07
8.62917e-07
-1.06534e-06
7.91032e-07
-1.20219e-06
7.14117e-07
-1.32404e-06
6.33188e-07
-1.43699e-06
5.48642e-07
-1.54807e-06
4.59696e-07
-1.66598e-06
3.63616e-07
-1.80557e-06
2.5519e-07
-1.99918e-06
1.28714e-07
-2.31819e-06
-1.14941e-08
-2.88521e-06
-1.40582e-07
-3.81017e-06
-2.20388e-07
-5.08623e-06
-1.91742e-07
-6.4919e-06
-7.09655e-06
2.03744e-07
9.70948e-07
3.83913e-07
2.1199e-06
5.29713e-07
2.62127e-06
6.60858e-07
2.87828e-06
7.8643e-07
3.02057e-06
9.05663e-07
3.08284e-06
1.0149e-06
3.07421e-06
1.109e-06
2.99993e-06
1.18569e-06
2.86827e-06
1.24639e-06
2.69329e-06
1.29405e-06
2.48933e-06
1.33159e-06
2.26798e-06
1.36128e-06
2.0373e-06
1.38463e-06
1.80228e-06
1.40252e-06
1.56569e-06
1.41527e-06
1.32888e-06
1.42276e-06
1.09241e-06
1.42451e-06
8.56584e-07
1.41976e-06
6.21781e-07
1.40756e-06
3.88828e-07
1.38686e-06
1.59195e-07
1.35665e-06
-6.48488e-08
1.31606e-06
-2.80195e-07
1.26453e-06
-4.82903e-07
1.20208e-06
-6.69224e-07
1.12942e-06
-8.36398e-07
1.04785e-06
-9.8377e-07
9.59076e-07
-1.11341e-06
8.64832e-07
-1.22979e-06
7.66583e-07
-1.33875e-06
6.65145e-07
-1.44663e-06
5.60154e-07
-1.56099e-06
4.49261e-07
-1.69468e-06
3.27401e-07
-1.87732e-06
1.88037e-07
-2.17883e-06
3.3602e-08
-2.73078e-06
-1.112e-07
-3.66537e-06
-2.04364e-07
-4.99306e-06
-1.89352e-07
-6.50691e-06
-7.28591e-06
1.9821e-07
7.72738e-07
3.9524e-07
1.92287e-06
5.60479e-07
2.45603e-06
7.09076e-07
2.72968e-06
8.51384e-07
2.87826e-06
9.8817e-07
2.94606e-06
1.11663e-06
2.94575e-06
1.23205e-06
2.88451e-06
1.33083e-06
2.76949e-06
1.41264e-06
2.61148e-06
1.47922e-06
2.42274e-06
1.53311e-06
2.21409e-06
1.5766e-06
1.9938e-06
1.6114e-06
1.76748e-06
1.63851e-06
1.53858e-06
1.65835e-06
1.30904e-06
1.67085e-06
1.07992e-06
1.67551e-06
8.51922e-07
1.67155e-06
6.25741e-07
1.65795e-06
4.02423e-07
1.63362e-06
1.8353e-07
1.5974e-06
-2.86266e-08
1.54853e-06
-2.31328e-07
1.48654e-06
-4.20915e-07
1.4117e-06
-5.94387e-07
1.32506e-06
-7.49757e-07
1.22834e-06
-8.87047e-07
1.12363e-06
-1.0087e-06
1.013e-06
-1.11917e-06
8.98215e-07
-1.22396e-06
7.80377e-07
-1.32879e-06
6.59546e-07
-1.44016e-06
5.33922e-07
-1.56905e-06
3.98795e-07
-1.74219e-06
2.46931e-07
-2.02697e-06
7.85419e-08
-2.56239e-06
-8.2192e-08
-3.50464e-06
-1.8831e-07
-4.88694e-06
-1.87188e-07
-6.50803e-06
-7.47309e-06
1.79894e-07
5.92844e-07
3.87773e-07
1.71499e-06
5.70129e-07
2.27367e-06
7.35076e-07
2.56474e-06
8.93004e-07
2.72034e-06
1.04658e-06
2.79249e-06
1.19326e-06
2.79906e-06
1.32929e-06
2.74848e-06
1.45056e-06
2.64822e-06
1.55505e-06
2.50699e-06
1.64304e-06
2.33476e-06
1.71601e-06
2.14112e-06
1.77584e-06
1.93398e-06
1.82414e-06
1.71918e-06
1.86205e-06
1.50067e-06
1.89011e-06
1.28098e-06
1.90832e-06
1.06171e-06
1.91628e-06
8.43967e-07
1.91321e-06
6.28809e-07
1.89813e-06
4.17504e-07
1.86997e-06
2.11684e-07
1.82761e-06
1.37418e-08
1.7705e-06
-1.74225e-07
1.69841e-06
-3.48822e-07
1.61194e-06
-5.07915e-07
1.51249e-06
-6.50309e-07
1.4021e-06
-7.7666e-07
1.28309e-06
-8.89685e-07
1.15767e-06
-9.93749e-07
1.02766e-06
-1.09395e-06
8.94335e-07
-1.19547e-06
7.58229e-07
-1.30405e-06
6.18214e-07
-1.42904e-06
4.70155e-07
-1.59413e-06
3.06534e-07
-1.86334e-06
1.25458e-07
-2.38131e-06
-5.12047e-08
-3.32797e-06
-1.72497e-07
-4.76565e-06
-1.89978e-07
-6.49055e-06
-7.66307e-06
1.50847e-07
4.41997e-07
3.61235e-07
1.5046e-06
5.565e-07
2.07841e-06
7.36248e-07
2.38499e-06
9.08714e-07
2.54787e-06
1.07797e-06
2.62323e-06
1.24216e-06
2.63488e-06
1.39754e-06
2.59309e-06
1.54037e-06
2.50539e-06
1.66766e-06
2.3797e-06
1.77813e-06
2.22428e-06
1.87204e-06
2.04721e-06
1.9504e-06
1.85563e-06
2.01437e-06
1.6552e-06
2.06492e-06
1.45012e-06
2.10262e-06
1.24328e-06
2.12758e-06
1.03675e-06
2.13948e-06
8.32065e-07
2.13769e-06
6.30598e-07
2.12136e-06
4.33833e-07
2.08954e-06
2.43503e-07
2.0416e-06
6.16876e-08
1.97689e-06
-1.09518e-07
1.89582e-06
-2.67755e-07
1.79932e-06
-4.11415e-07
1.6891e-06
-5.40083e-07
1.56735e-06
-6.5491e-07
1.4364e-06
-7.58742e-07
1.29837e-06
-8.55717e-07
1.15495e-06
-9.50528e-07
1.00758e-06
-1.04809e-06