/*--------------------------------*- C++ -*----------------------------------*\
  =========                 |
  \\      /  F ield         | OpenFOAM: The Open Source CFD Toolbox
   \\    /   O peration     | Website:  https://openfoam.org
    \\  /    A nd           | Version:  12
     \\/     M anipulation  |
\*---------------------------------------------------------------------------*/
FoamFile
{
    format      ascii;
    class       volVectorField;
    location    "3";
    object      U;
}
// * * * * * * * * * * * * * * * * * * * * * * * * * * * * * * * * * * * * * //

dimensions      [0 1 -1 0 0 0 0];

internalField   nonuniform List<vector> 
1600
(
(0.000831383 -0.000773253 0)
(0.00397415 -0.00119322 0)
(0.00724336 -0.0012401 0)
(0.00959098 -0.000779815 0)
(0.0108083 -0.000342407 0)
(0.0110811 -0.000131179 0)
(0.0108224 -0.000140187 0)
(0.0102299 -0.000255573 0)
(0.00934934 -0.000397317 0)
(0.00804479 -0.000498913 0)
(0.00620231 -0.000811523 0)
(0.00296633 -0.000779607 0)
(-0.00403618 6.68863e-05 0)
(-0.0127237 0.0027945 0)
(-0.0250909 0.00703979 0)
(-0.0438601 0.00957134 0)
(-0.0610018 0.00939395 0)
(-0.0766006 0.00863634 0)
(-0.089944 0.007528 0)
(-0.101099 0.00636244 0)
(-0.1101 0.00516598 0)
(-0.116946 0.0039841 0)
(-0.121711 0.00279347 0)
(-0.123995 0.00168217 0)
(-0.124604 0.000365623 0)
(-0.122354 -0.00134363 0)
(-0.117704 -0.00283751 0)
(-0.110028 -0.00460723 0)
(-0.0993728 -0.00626121 0)
(-0.0857299 -0.00814384 0)
(-0.0693498 -0.00995844 0)
(-0.0503451 -0.0112489 0)
(-0.0298805 -0.0116538 0)
(-0.0086536 -0.0107619 0)
(0.00910636 -0.00897969 0)
(0.0218696 -0.0034924 0)
(0.0238829 0.00254558 0)
(0.0192889 0.0040876 0)
(0.00934547 0.00336051 0)
(0.00191458 0.00231382 0)
(0.00139716 -0.00401572 0)
(0.00629832 -0.00589367 0)
(0.00979157 -0.00479125 0)
(0.0118772 -0.00285842 0)
(0.0124938 -0.00107717 0)
(0.0116334 0.000237857 0)
(0.00947791 0.00111263 0)
(0.00609651 0.00175993 0)
(0.000888414 0.00258921 0)
(-0.00725151 0.00418052 0)
(-0.0190839 0.00697385 0)
(-0.0370044 0.0121967 0)
(-0.05852 0.0181937 0)
(-0.0796548 0.0235057 0)
(-0.0976301 0.0258602 0)
(-0.112838 0.0250772 0)
(-0.12585 0.0229162 0)
(-0.136724 0.0200223 0)
(-0.145644 0.0168468 0)
(-0.152681 0.0136548 0)
(-0.157931 0.0104719 0)
(-0.161412 0.00734556 0)
(-0.163164 0.00419956 0)
(-0.163161 0.000974324 0)
(-0.161416 -0.00252379 0)
(-0.157659 -0.00629213 0)
(-0.151839 -0.0102884 0)
(-0.143701 -0.0146017 0)
(-0.133007 -0.0191413 0)
(-0.119337 -0.0237435 0)
(-0.102974 -0.0281883 0)
(-0.0840375 -0.0317156 0)
(-0.0628071 -0.0331291 0)
(-0.0407244 -0.0314488 0)
(-0.0188335 -0.0253573 0)
(0.00023259 -0.0129658 0)
(0.0132141 0.00180418 0)
(0.0140679 0.009239 0)
(0.00852016 0.011496 0)
(0.00140731 0.0084183 0)
(0.00183117 -0.00833306 0)
(0.00606905 -0.00989621 0)
(0.00775196 -0.00710739 0)
(0.00796506 -0.00338849 0)
(0.00647104 -5.32752e-05 0)
(0.00318232 0.0027701 0)
(-0.00242815 0.00547261 0)
(-0.0112449 0.00885248 0)
(-0.024456 0.014017 0)
(-0.0424524 0.0213598 0)
(-0.0634053 0.0292453 0)
(-0.083801 0.0350703 0)
(-0.102369 0.0383508 0)
(-0.117869 0.0393326 0)
(-0.130427 0.038191 0)
(-0.140629 0.0354249 0)
(-0.148954 0.0316616 0)
(-0.15568 0.0273195 0)
(-0.161034 0.0227907 0)
(-0.165137 0.0182447 0)
(-0.168077 0.0137048 0)
(-0.169956 0.00910514 0)
(-0.17063 0.00457258 0)
(-0.17009 -9.98206e-05 0)
(-0.168228 -0.00500986 0)
(-0.165091 -0.0102502 0)
(-0.160545 -0.0160242 0)
(-0.15438 -0.0224355 0)
(-0.146458 -0.029531 0)
(-0.136419 -0.0369311 0)
(-0.123804 -0.0441378 0)
(-0.108615 -0.0503383 0)
(-0.0904874 -0.0538479 0)
(-0.0705907 -0.0535246 0)
(-0.048964 -0.0465633 0)
(-0.0264296 -0.0306792 0)
(-0.00517263 -0.00696595 0)
(0.00288155 0.00905295 0)
(0.00247885 0.0150362 0)
(0.000195934 0.0117626 0)
(0.00178286 -0.0121975 0)
(0.00373127 -0.0117598 0)
(0.00310655 -0.00688496 0)
(0.000694403 -0.00136149 0)
(-0.00376627 0.00396321 0)
(-0.0109455 0.00950948 0)
(-0.0216207 0.0159575 0)
(-0.0363595 0.0238746 0)
(-0.0545865 0.0328503 0)
(-0.0746034 0.0416208 0)
(-0.0941834 0.0482727 0)
(-0.110706 0.051643 0)
(-0.123931 0.0522793 0)
(-0.134319 0.0506684 0)
(-0.142458 0.0473578 0)
(-0.148978 0.0429913 0)
(-0.154139 0.0379784 0)
(-0.158194 0.03261 0)
(-0.16169 0.0268621 0)
(-0.164365 0.0211889 0)
(-0.166303 0.0155598 0)
(-0.167332 0.0100661 0)
(-0.167552 0.00444438 0)
(-0.166941 -0.00131447 0)
(-0.1655 -0.00733399 0)
(-0.163144 -0.0137371 0)
(-0.159808 -0.0206875 0)
(-0.15537 -0.0282947 0)
(-0.149685 -0.036619 0)
(-0.142662 -0.0459003 0)
(-0.134105 -0.0557158 0)
(-0.123802 -0.0653664 0)
(-0.111099 -0.0729196 0)
(-0.094582 -0.0752405 0)
(-0.0750356 -0.0702357 0)
(-0.0516125 -0.0540739 0)
(-0.0238329 -0.0243787 0)
(-0.00543573 0.00285943 0)
(-0.00117979 0.0138019 0)
(1.8967e-05 0.0119352 0)
(0.00111901 -0.0138519 0)
(0.000207686 -0.0108933 0)
(-0.00330454 -0.00374305 0)
(-0.00863847 0.00382255 0)
(-0.0165029 0.0118896 0)
(-0.0275715 0.0208967 0)
(-0.0421514 0.0310902 0)
(-0.0595778 0.0418956 0)
(-0.0784323 0.052015 0)
(-0.0964518 0.0596333 0)
(-0.111298 0.0634727 0)
(-0.122794 0.0639338 0)
(-0.131761 0.0620481 0)
(-0.138625 0.0583853 0)
(-0.143925 0.0534957 0)
(-0.148088 0.0478595 0)
(-0.151524 0.0416572 0)
(-0.15426 0.0353067 0)
(-0.156159 0.02906 0)
(-0.157241 0.0228096 0)
(-0.157817 0.0165887 0)
(-0.157835 0.010398 0)
(-0.157429 0.00414905 0)
(-0.156592 -0.00224222 0)
(-0.155317 -0.00892002 0)
(-0.153519 -0.0160621 0)
(-0.151224 -0.0238474 0)
(-0.148357 -0.0324267 0)
(-0.14483 -0.0418775 0)
(-0.140483 -0.0521508 0)
(-0.135071 -0.0630016 0)
(-0.12824 -0.0739615 0)
(-0.11984 -0.0845425 0)
(-0.108957 -0.0919827 0)
(-0.0935532 -0.0918519 0)
(-0.0727916 -0.0803231 0)
(-0.0452198 -0.0527416 0)
(-0.0136178 -0.0116216 0)
(-0.00170565 0.00941815 0)
(0.000642924 0.0115199 0)
(-0.000477411 -0.0133663 0)
(-0.00427041 -0.00695117 0)
(-0.0104391 0.00227985 0)
(-0.0185949 0.0122008 0)
(-0.02948 0.0232229 0)
(-0.0433279 0.0354085 0)
(-0.0596005 0.0480231 0)
(-0.0770918 0.0597749 0)
(-0.0938451 0.068875 0)
(-0.1075 0.0736563 0)
(-0.117791 0.0743913 0)
(-0.125667 0.0724245 0)
(-0.131663 0.0685714 0)
(-0.136122 0.0633571 0)
(-0.139451 0.0572801 0)
(-0.141892 0.0506961 0)
(-0.143461 0.0438838 0)
(-0.144429 0.0369517 0)
(-0.144812 0.0300596 0)
(-0.144925 0.0232577 0)
(-0.144638 0.0165988 0)
(-0.144045 0.0100264 0)
(-0.143173 0.00345392 0)
(-0.142057 -0.00323198 0)
(-0.140713 -0.0101787 0)
(-0.13917 -0.0175799 0)
(-0.137473 -0.0256295 0)
(-0.135629 -0.0345281 0)
(-0.133613 -0.0444417 0)
(-0.131336 -0.055451 0)
(-0.128609 -0.0674295 0)
(-0.125115 -0.079918 0)
(-0.120354 -0.0919512 0)
(-0.113409 -0.102122 0)
(-0.103189 -0.108025 0)
(-0.0871612 -0.103592 0)
(-0.0638277 -0.0835189 0)
(-0.0298858 -0.041734 0)
(-0.00389103 -0.000872986 0)
(0.0013317 0.0109822 0)
(-0.00224865 -0.00958072 0)
(-0.00875956 -0.000180865 0)
(-0.0171744 0.0109479 0)
(-0.0277084 0.0231413 0)
(-0.0407424 0.0368068 0)
(-0.0558099 0.0511029 0)
(-0.071982 0.0646039 0)
(-0.0876761 0.0755475 0)
(-0.100715 0.08197 0)
(-0.110306 0.0836139 0)
(-0.117394 0.081971 0)
(-0.122695 0.0781513 0)
(-0.126481 0.0727892 0)
(-0.129079 0.0663977 0)
(-0.130771 0.0594001 0)
(-0.131738 0.0520618 0)
(-0.132121 0.0446058 0)
(-0.132094 0.0371809 0)
(-0.131711 0.0299099 0)
(-0.13107 0.0228113 0)
(-0.130163 0.0158848 0)
(-0.129057 0.0090847 0)
(-0.12778 0.00232541 0)
(-0.12638 -0.00450178 0)
(-0.124905 -0.0115341 0)
(-0.123421 -0.0189558 0)
(-0.121998 -0.0269673 0)
(-0.120691 -0.0357885 0)
(-0.11953 -0.0456317 0)
(-0.118491 -0.0566588 0)
(-0.117462 -0.0689085 0)
(-0.116187 -0.0822077 0)
(-0.114192 -0.0959359 0)
(-0.110681 -0.108695 0)
(-0.104317 -0.118191 0)
(-0.0934049 -0.120849 0)
(-0.0757481 -0.110074 0)
(-0.0485454 -0.0777394 0)
(-0.010756 -0.0183809 0)
(0.00213959 0.00966958 0)
(-0.00382015 -0.00328866 0)
(-0.0125424 0.00896734 0)
(-0.0226708 0.0216625 0)
(-0.0349248 0.0358578 0)
(-0.0489612 0.0513189 0)
(-0.0639753 0.0664347 0)
(-0.0788036 0.079454 0)
(-0.0916137 0.0881378 0)
(-0.101089 0.0914481 0)
(-0.10778 0.0905832 0)
(-0.11268 0.0871082 0)
(-0.1161 0.0818012 0)
(-0.1183 0.0752326 0)
(-0.119593 0.0679051 0)
(-0.120191 0.0601716 0)
(-0.120254 0.0522681 0)
(-0.119918 0.0443852 0)
(-0.119285 0.0366428 0)
(-0.118399 0.0291125 0)
(-0.117306 0.0217972 0)
(-0.116023 0.0146847 0)
(-0.114587 0.00773148 0)
(-0.113037 0.000864002 0)
(-0.111418 -0.00600833 0)
(-0.109794 -0.0130243 0)
(-0.108251 -0.0203498 0)
(-0.106884 -0.0281851 0)
(-0.105787 -0.0367604 0)
(-0.105035 -0.0463206 0)
(-0.104657 -0.057093 0)
(-0.104598 -0.0692217 0)
(-0.104681 -0.0826683 0)
(-0.104495 -0.0970919 0)
(-0.103269 -0.111576 0)
(-0.0998221 -0.124288 0)
(-0.0925906 -0.132004 0)
(-0.0800977 -0.129469 0)
(-0.0593895 -0.108433 0)
(-0.0242079 -0.0513623 0)
(0.00107988 0.00303019 0)
(-0.0048707 0.00528616 0)
(-0.0152251 0.0198845 0)
(-0.0265729 0.0337727 0)
(-0.0396466 0.0493173 0)
(-0.0536763 0.0655397 0)
(-0.0677691 0.0805133 0)
(-0.0805564 0.0918465 0)
(-0.0904086 0.0976665 0)
(-0.0972128 0.0982525 0)
(-0.101989 0.0954654 0)
(-0.105334 0.0904997 0)
(-0.107436 0.0839716 0)
(-0.108598 0.0764633 0)
(-0.109075 0.0684269 0)
(-0.109034 0.0601567 0)
(-0.108614 0.0518584 0)
(-0.107915 0.0436798 0)
(-0.106996 0.0357034 0)
(-0.105883 0.0279695 0)
(-0.104596 0.0204779 0)
(-0.103146 0.0132137 0)
(-0.101555 0.00613759 0)
(-0.0998472 -0.000809785 0)
(-0.0980736 -0.00770388 0)
(-0.0963049 -0.0146634 0)
(-0.0946254 -0.0218344 0)
(-0.093148 -0.0294059 0)
(-0.0919961 -0.0376117 0)
(-0.0912874 -0.0467243 0)
(-0.0911049 -0.0570325 0)
(-0.0914572 -0.0687925 0)
(-0.0922294 -0.0821371 0)
(-0.0931248 -0.0969432 0)
(-0.0934852 -0.112628 0)
(-0.0921765 -0.127727 0)
(-0.087654 -0.139473 0)
(-0.0787749 -0.142786 0)
(-0.0633122 -0.131686 0)
(-0.0377593 -0.0897433 0)
(-0.00349667 -0.0102048 0)
(-0.00557352 0.0153439 0)
(-0.0168218 0.0318928 0)
(-0.0286494 0.046523 0)
(-0.0417874 0.06266 0)
(-0.0551916 0.078895 0)
(-0.0678343 0.0928353 0)
(-0.0783634 0.101818 0)
(-0.0857644 0.104788 0)
(-0.0907706 0.103232 0)
(-0.0942561 0.0988993 0)
(-0.0965226 0.0926895 0)
(-0.0977878 0.0851911 0)
(-0.0983456 0.076972 0)
(-0.098393 0.0684125 0)
(-0.0980689 0.0597593 0)
(-0.0974802 0.051182 0)
(-0.0966889 0.0427873 0)
(-0.0957227 0.0346276 0)
(-0.0945904 0.0267233 0)
(-0.0932927 0.0190698 0)
(-0.0918309 0.0116533 0)
(-0.0902116 0.00444519 0)
(-0.088453 -0.00259864 0)
(-0.086596 -0.00954348 0)
(-0.0847042 -0.0164723 0)
(-0.0828653 -0.0235081 0)
(-0.0811961 -0.0308181 0)
(-0.0798357 -0.0386258 0)
(-0.0789313 -0.0472154 0)
(-0.0786111 -0.0569218 0)
(-0.0789429 -0.0680931 0)
(-0.0798815 -0.0810146 0)
(-0.0812159 -0.0957834 0)
(-0.0824675 -0.112171 0)
(-0.0826136 -0.129196 0)
(-0.0800416 -0.144496 0)
(-0.0739775 -0.152404 0)
(-0.0622387 -0.148777 0)
(-0.0434861 -0.118889 0)
(-0.010757 -0.0275448 0)
(-0.00581746 0.0259153 0)
(-0.017338 0.04431 0)
(-0.0290557 0.0592701 0)
(-0.0416638 0.0753675 0)
(-0.053968 0.0909949 0)
(-0.0650508 0.103299 0)
(-0.073328 0.109602 0)
(-0.0790445 0.110225 0)
(-0.082862 0.106966 0)
(-0.0854703 0.101353 0)
(-0.0870489 0.0941237 0)
(-0.0878501 0.0858773 0)
(-0.0881263 0.0771255 0)
(-0.0880305 0.068186 0)
(-0.0876731 0.0592631 0)
(-0.087125 0.0504855 0)
(-0.0864184 0.0419224 0)
(-0.0855604 0.0336033 0)
(-0.0845429 0.025536 0)
(-0.0833532 0.0177141 0)
(-0.0819799 0.0101257 0)
(-0.0804189 0.00275391 0)
(-0.0786815 -0.00442937 0)
(-0.0768002 -0.0114659 0)
(-0.074831 -0.0184152 0)
(-0.0728572 -0.0253705 0)
(-0.0709918 -0.0324708 0)
(-0.0693761 -0.0399183 0)
(-0.0681721 -0.0479936 0)
(-0.0675418 -0.0570612 0)
(-0.0676054 -0.0675483 0)
(-0.0683839 -0.079879 0)
(-0.0697387 -0.0943531 0)
(-0.0713229 -0.110989 0)
(-0.0723296 -0.129296 0)
(-0.0712461 -0.147548 0)
(-0.0666067 -0.160032 0)
(-0.0577874 -0.162307 0)
(-0.0413635 -0.142619 0)
(-0.0151823 -0.0654344 0)
(-0.00566081 0.0365062 0)
(-0.0168981 0.056528 0)
(-0.0280208 0.0714125 0)
(-0.0397386 0.0870405 0)
(-0.0507441 0.101629 0)
(-0.0602346 0.112021 0)
(-0.0665816 0.115751 0)
(-0.071194 0.114506 0)
(-0.0741942 0.109858 0)
(-0.0762291 0.10318 0)
(-0.0774177 0.0951399 0)
(-0.07802 0.086325 0)
(-0.0782364 0.0771806 0)
(-0.0781847 0.0679702 0)
(-0.0779458 0.0588541 0)
(-0.0775618 0.049922 0)
(-0.0770429 0.0412141 0)
(-0.0763792 0.0327421 0)
(-0.0755487 0.0245045 0)
(-0.074527 0.0164948 0)
(-0.0732948 0.00870579 0)
(-0.0718414 0.00113305 0)
(-0.0701719 -0.0062333 0)
(-0.0683139 -0.0134123 0)
(-0.0663172 -0.0204393 0)
(-0.0642582 -0.0273789 0)
(-0.0622412 -0.0343405 0)
(-0.0603997 -0.041498 0)
(-0.0588949 -0.0491136 0)
(-0.0579041 -0.0575597 0)
(-0.0575885 -0.0673206 0)
(-0.058033 -0.0789459 0)
(-0.0591715 -0.0929307 0)
(-0.0607358 -0.10953 0)
(-0.0621503 -0.128596 0)
(-0.0621232 -0.149009 0)
(-0.0585313 -0.166351 0)
(-0.0521053 -0.172641 0)
(-0.0378362 -0.161835 0)
(-0.0133911 -0.0949443 0)
(-0.00517814 0.0465824 0)
(-0.0156995 0.0680915 0)
(-0.0259419 0.0826762 0)
(-0.0365017 0.0975652 0)
(-0.0462317 0.110894 0)
(-0.053838 0.118941 0)
(-0.0590075 0.120771 0)
(-0.0627727 0.117971 0)
(-0.0652231 0.112189 0)
(-0.0669038 0.104642 0)
(-0.0679095 0.0959711 0)
(-0.0684825 0.086731 0)
(-0.0687732 0.0773009 0)
(-0.0688705 0.067895 0)
(-0.068829 0.0586333 0)
(-0.0686679 0.0495718 0)
(-0.0683803 0.0407269 0)
(-0.0679434 0.0320959 0)
(-0.0673256 0.0236713 0)
(-0.0664942 0.0154484 0)
(-0.0654254 0.0074285 0)
(-0.0641045 -0.000380634 0)
(-0.0625328 -0.00796977 0)
(-0.0607346 -0.0153359 0)
(-0.0587561 -0.0224905 0)
(-0.0566678 -0.0294727 0)
(-0.0545652 -0.0363644 0)
(-0.05257 -0.0433109 0)
(-0.0508314 -0.0505484 0)
(-0.0495244 -0.0584378 0)
(-0.0488308 -0.0674915 0)
(-0.0488896 -0.0783585 0)
(-0.0497117 -0.0917225 0)
(-0.0511004 -0.108086 0)
(-0.0526037 -0.127547 0)
(-0.0531475 -0.149384 0)
(-0.0507547 -0.171186 0)
(-0.0451359 -0.181998 0)
(-0.0334217 -0.178157 0)
(-0.0118531 -0.12185 0)
(-0.00448686 0.0557392 0)
(-0.013959 0.0786746 0)
(-0.0231071 0.0928246 0)
(-0.0323644 0.106746 0)
(-0.0407196 0.118632 0)
(-0.0466994 0.124598 0)
(-0.0510818 0.124911 0)
(-0.0541404 0.120849 0)
(-0.0562253 0.114152 0)
(-0.0576961 0.105915 0)
(-0.0586476 0.0967645 0)
(-0.0592842 0.0872099 0)
(-0.0597153 0.0775714 0)
(-0.0600051 0.0680205 0)
(-0.0601853 0.0586412 0)
(-0.0602579 0.0494609 0)
(-0.0602041 0.0404767 0)
(-0.0599925 0.0316752 0)
(-0.0595864 0.0230454 0)
(-0.058948 0.0145857 0)
(-0.0580496 0.0063078 0)
(-0.0568746 -0.00176735 0)
(-0.0554219 -0.00961157 0)
(-0.0537132 -0.0171997 0)
(-0.0517929 -0.0245203 0)
(-0.0497281 -0.0315892 0)
(-0.0476083 -0.0384652 0)
(-0.045544 -0.0452688 0)
(-0.0436689 -0.0522095 0)
(-0.0421432 -0.0596253 0)
(-0.0411492 -0.0680295 0)
(-0.0408594 -0.0781352 0)
(-0.0413556 -0.0907913 0)
(-0.0425195 -0.106764 0)
(-0.0439767 -0.126427 0)
(-0.044851 -0.149474 0)
(-0.0436053 -0.173841 0)
(-0.0385695 -0.190265 0)
(-0.029363 -0.191504 0)
(-0.00994877 -0.143983 0)
(-0.00363241 0.0636649 0)
(-0.0118556 0.0880095 0)
(-0.0197623 0.101667 0)
(-0.027655 0.114544 0)
(-0.0346533 0.125002 0)
(-0.0393021 0.129247 0)
(-0.0430084 0.128337 0)
(-0.0455205 0.123291 0)
(-0.0473456 0.115873 0)
(-0.0486925 0.107105 0)
(-0.0496548 0.0975976 0)
(-0.0503912 0.0878124 0)
(-0.0509794 0.0780207 0)
(-0.051461 0.0683574 0)
(-0.0518497 0.0588754 0)
(-0.052136 0.0495791 0)
(-0.0522938 0.0404505 0)
(-0.0522874 0.0314682 0)
(-0.0520778 0.0226193 0)
(-0.0516256 0.013906 0)
(-0.050899 0.00534983 0)
(-0.0498799 -0.0030132 0)
(-0.0485651 -0.0111362 0)
(-0.0469739 -0.0189718 0)
(-0.0451494 -0.0264853 0)
(-0.0431578 -0.033671 0)
(-0.0410852 -0.040568 0)
(-0.0390343 -0.0472778 0)
(-0.0371249 -0.053988 0)
(-0.035498 -0.0610107 0)
(-0.0343224 -0.0688413 0)
(-0.0337812 -0.0782191 0)
(-0.0340095 -0.0901175 0)
(-0.0349723 -0.105557 0)
(-0.0363559 -0.125209 0)
(-0.0374784 -0.149126 0)
(-0.0369345 -0.175798 0)
(-0.0325472 -0.197529 0)
(-0.0258528 -0.202994 0)
(-0.0086676 -0.163567 0)
(-0.00273734 0.0701246 0)
(-0.00954432 0.0959415 0)
(-0.0161419 0.109151 0)
(-0.0226965 0.121073 0)
(-0.0282815 0.130044 0)
(-0.0318689 0.13303 0)
(-0.0349577 0.131168 0)
(-0.0370278 0.125385 0)
(-0.0386438 0.117424 0)
(-0.0399068 0.108262 0)
(-0.0408972 0.0984959 0)
(-0.0417304 0.088544 0)
(-0.0424578 0.0786384 0)
(-0.0431012 0.0688831 0)
(-0.0436621 0.0593065 0)
(-0.044124 0.0498952 0)
(-0.0444575 0.0406195 0)
(-0.0446262 0.0314517 0)
(-0.0445907 0.022378 0)
(-0.0443126 0.0134038 0)
(-0.0437572 0.00455945 0)
(-0.0429038 -0.00410396 0)
(-0.0417471 -0.0125206 0)
(-0.0403031 -0.0206199 0)
(-0.0386138 -0.0283434 0)
(-0.0367448 -0.0356637 0)
(-0.0347811 -0.0426031 0)
(-0.032821 -0.0492494 0)
(-0.0309734 -0.0557748 0)
(-0.0293618 -0.0624693 0)
(-0.028135 -0.0698019 0)
(-0.0274706 -0.0785083 0)
(-0.0275371 -0.0896426 0)
(-0.0283781 -0.104448 0)
(-0.0297553 -0.123932 0)
(-0.0311048 -0.148434 0)
(-0.0311488 -0.176705 0)
(-0.0280216 -0.203168 0)
(-0.0221009 -0.213105 0)
(-0.00748788 -0.180049 0)
(-0.00176832 0.0751028 0)
(-0.00710131 0.102398 0)
(-0.012376 0.115253 0)
(-0.0175943 0.126278 0)
(-0.0218619 0.133962 0)
(-0.0245261 0.136028 0)
(-0.0270261 0.133477 0)
(-0.0287092 0.12718 0)
(-0.0301287 0.118834 0)
(-0.0313114 0.109395 0)
(-0.0323151 0.0994496 0)
(-0.033216 0.0893804 0)
(-0.0340421 0.0793886 0)
(-0.0348006 0.0695553 0)
(-0.0354848 0.0598902 0)
(-0.0360742 0.0503666 0)
(-0.0365399 0.0409462 0)
(-0.0368474 0.0315964 0)
(-0.0369592 0.0223019 0)
(-0.0368385 0.0130709 0)
(-0.0364511 0.00394067 0)
(-0.0357729 -0.00502401 0)
(-0.0347959 -0.0137383 0)
(-0.0335324 -0.0221081 0)
(-0.0320216 -0.0300493 0)
(-0.0303281 -0.0375123 0)
(-0.028536 -0.0445036 0)
(-0.0267409 -0.0511013 0)
(-0.0250443 -0.0574692 0)
(-0.0235545 -0.0638813 0)
(-0.0223995 -0.0707793 0)
(-0.0217407 -0.0788749 0)
(-0.0217593 -0.0892593 0)
(-0.0225628 -0.103361 0)
(-0.0240037 -0.12253 0)
(-0.0255756 -0.147435 0)
(-0.0260669 -0.177159 0)
(-0.0239831 -0.207509 0)
(-0.0195522 -0.221719 0)
(-0.00658701 -0.194721 0)
(-0.000802304 0.0783586 0)
(-0.00462217 0.107296 0)
(-0.00857451 0.119975 0)
(-0.0124562 0.130193 0)
(-0.0155029 0.136852 0)
(-0.0173705 0.138306 0)
(-0.0192602 0.135296 0)
(-0.0205744 0.128684 0)
(-0.0217825 0.120098 0)
(-0.0228623 0.110485 0)
(-0.0238429 0.100426 0)
(-0.0247655 0.090278 0)
(-0.025638 0.0802214 0)
(-0.0264567 0.070321 0)
(-0.027209 0.0605741 0)
(-0.0278736 0.0509446 0)
(-0.028424 0.0413881 0)
(-0.0288296 0.031868 0)
(-0.0290574 0.0223674 0)
(-0.0290734 0.0128958 0)
(-0.028846 0.0034954 0)
(-0.0283498 -0.00575763 0)
(-0.0275737 -0.0147607 0)
(-0.0265259 -0.0233958 0)
(-0.0252414 -0.0315525 0)
(-0.0237811 -0.0391573 0)
(-0.0222272 -0.0462008 0)
(-0.0206725 -0.0527542 0)
(-0.0192119 -0.0589782 0)
(-0.0179421 -0.0651381 0)
(-0.016972 -0.0716517 0)
(-0.0164428 -0.0791965 0)
(-0.0165339 -0.0888639 0)
(-0.0173984 -0.102217 0)
(-0.0189773 -0.120941 0)
(-0.0208229 -0.14607 0)
(-0.0218215 -0.177125 0)
(-0.0207164 -0.210498 0)
(-0.0172055 -0.229119 0)
(-0.00581108 -0.207513 0)
(9.04491e-05 0.0802646 0)
(-0.00215026 0.110725 0)
(-0.00480914 0.123347 0)
(-0.00737488 0.132882 0)
(-0.00928092 0.138786 0)
(-0.0104363 0.139888 0)
(-0.0116769 0.136631 0)
(-0.0126129 0.129884 0)
(-0.0135764 0.121188 0)
(-0.0145131 0.111493 0)
(-0.0154213 0.101377 0)
(-0.0163107 0.0911832 0)
(-0.0171723 0.0810801 0)
(-0.0179933 0.0711234 0)
(-0.0187573 0.061303 0)
(-0.0194439 0.0515779 0)
(-0.0200301 0.0418996 0)
(-0.020491 0.0322287 0)
(-0.0207994 0.0225464 0)
(-0.0209271 0.012862 0)
(-0.0208462 0.00322118 0)
(-0.0205336 -0.00629185 0)
(-0.0199763 -0.015559 0)
(-0.0191788 -0.0244399 0)
(-0.01817 -0.0327975 0)
(-0.0170049 -0.0405337 0)
(-0.0157601 -0.0476221 0)
(-0.0145232 -0.054128 0)
(-0.0133827 -0.060213 0)
(-0.0124246 -0.0661395 0)
(-0.0117411 -0.0723065 0)
(-0.0114528 -0.0793543 0)
(-0.0117283 -0.088348 0)
(-0.0127489 -0.100934 0)
(-0.0145362 -0.119104 0)
(-0.0166909 -0.144296 0)
(-0.0182452 -0.176505 0)
(-0.0180203 -0.212564 0)
(-0.0155432 -0.235428 0)
(-0.00521014 -0.219087 0)
(0.00114399 0.0801349 0)
(0.000285406 0.112607 0)
(-0.00109981 0.125398 0)
(-0.00241507 0.134402 0)
(-0.00326793 0.139843 0)
(-0.00370782 0.140775 0)
(-0.00428395 0.13745 0)
(-0.00481136 0.130738 0)
(-0.00548453 0.12206 0)
(-0.00622582 0.112367 0)
(-0.00700454 0.102247 0)
(-0.00780211 0.0920382 0)
(-0.00859469 0.0819065 0)
(-0.00936133 0.0719053 0)
(-0.0100826 0.0620226 0)
(-0.0107398 0.0522157 0)
(-0.0113145 0.0424347 0)
(-0.011788 0.0326386 0)
(-0.0121405 0.0228068 0)
(-0.0123513 0.0129482 0)
(-0.0123992 0.00310965 0)
(-0.0122656 -0.00661909 0)
(-0.0119392 -0.016108 0)
(-0.0114217 -0.0251979 0)
(-0.0107359 -0.0337271 0)
(-0.00992803 -0.0415729 0)
(-0.00906521 -0.0486915 0)
(-0.00822552 -0.0551419 0)
(-0.00748819 -0.0610877 0)
(-0.00692862 -0.0667928 0)
(-0.00662387 -0.0726433 0)
(-0.00667486 -0.079242 0)
(-0.00723532 -0.0876106 0)
(-0.00850259 -0.0994332 0)
(-0.010564 -0.116966 0)
(-0.0130786 -0.142089 0)
(-0.0152056 -0.175247 0)
(-0.0157777 -0.213715 0)
(-0.0141379 -0.240811 0)
(-0.00471158 -0.229482 0)
(0.00191126 0.0787934 0)
(0.00259476 0.113068 0)
(0.00248072 0.126197 0)
(0.00234069 0.134846 0)
(0.00248499 0.140028 0)
(0.00280962 0.140928 0)
(0.00291309 0.137751 0)
(0.00283577 0.131205 0)
(0.00250802 0.122658 0)
(0.00202212 0.11305 0)
(0.00143443 0.102977 0)
(0.000788205 0.0927847 0)
(0.000121523 0.082644 0)
(-0.000536782 0.0726125 0)
(-0.00116507 0.0626814 0)
(-0.00174602 0.0528101 0)
(-0.0022659 0.0429495 0)
(-0.00271287 0.0330586 0)
(-0.0030752 0.023116 0)
(-0.00334094 0.0131299 0)
(-0.0034977 0.00314761 0)
(-0.00353457 -0.00673827 0)
(-0.00344451 -0.0163899 0)
(-0.00322942 -0.025634 0)
(-0.00290655 -0.0342883 0)
(-0.00251231 -0.042208 0)
(-0.00210078 -0.0493323 0)
(-0.00173621 -0.0557137 0)
(-0.00148384 -0.0615183 0)
(-0.0014047 -0.067013 0)
(-0.00156128 -0.0725735 0)
(-0.0020379 -0.0787662 0)
(-0.00297107 -0.0865597 0)
(-0.00456566 -0.0976363 0)
(-0.00696228 -0.114474 0)
(-0.00988749 -0.139428 0)
(-0.0125982 -0.17339 0)
(-0.0139218 -0.214072 0)
(-0.0131369 -0.245428 0)
(-0.00432659 -0.239092 0)
(0.00270801 0.0758182 0)
(0.00482208 0.112121 0)
(0.00590154 0.125796 0)
(0.00684994 0.134287 0)
(0.00794054 0.13934 0)
(0.00907519 0.14031 0)
(0.00987346 0.137482 0)
(0.010321 0.131244 0)
(0.0103988 0.122924 0)
(0.0102329 0.113479 0)
(0.00990096 0.103506 0)
(0.00946628 0.093365 0)
(0.00898059 0.0832388 0)
(0.00848079 0.0731952 0)
(0.00799125 0.0632336 0)
(0.0075277 0.0533189 0)
(0.00709949 0.0434056 0)
(0.006712 0.0334543 0)
(0.00636876 0.0234441 0)
(0.0060723 0.0133835 0)
(0.0058247 0.00331974 0)
(0.00562734 -0.00665329 0)
(0.00548011 -0.016394 0)
(0.00537811 -0.0257206 0)
(0.00530723 -0.0344358 0)
(0.00524079 -0.0423779 0)
(0.00514002 -0.0494722 0)
(0.00495944 -0.0557657 0)
(0.00465319 -0.0614261 0)
(0.00417708 -0.066721 0)
(0.00348391 -0.0720172 0)
(0.0025074 -0.0778466 0)
(0.00112645 -0.0851163 0)
(-0.000864309 -0.0954798 0)
(-0.00364909 -0.111584 0)
(-0.00702347 -0.13628 0)
(-0.0103139 -0.170923 0)
(-0.0123203 -0.213615 0)
(-0.0123287 -0.249394 0)
(-0.00400013 -0.247965 0)
(0.00344175 0.0713728 0)
(0.00692745 0.109801 0)
(0.00912395 0.124251 0)
(0.0110931 0.13276 0)
(0.013081 0.137782 0)
(0.0150733 0.138903 0)
(0.0164936 0.136567 0)
(0.0175825 0.130799 0)
(0.0181552 0.122797 0)
(0.0183838 0.113588 0)
(0.0183761 0.103772 0)
(0.018215 0.0937216 0)
(0.0179653 0.0836391 0)
(0.0176717 0.0736077 0)
(0.0173619 0.0636388 0)
(0.0170509 0.0537066 0)
(0.0167445 0.0437715 0)
(0.0164424 0.0337981 0)
(0.01614 0.0237679 0)
(0.0158302 0.0136904 0)
(0.0155044 0.00361317 0)
(0.0151537 -0.00636945 0)
(0.0147693 -0.0161153 0)
(0.0143406 -0.0254394 0)
(0.0138539 -0.0341369 0)
(0.0132914 -0.0420363 0)
(0.0126305 -0.049054 0)
(0.0118474 -0.0552328 0)
(0.0109195 -0.0607413 0)
(0.0098247 -0.0658472 0)
(0.00853276 -0.070905 0)
(0.00699422 -0.0764132 0)
(0.00510219 -0.0832131 0)
(0.00265852 -0.0929046 0)
(-0.00055817 -0.108255 0)
(-0.00442594 -0.132619 0)
(-0.00830329 -0.167871 0)
(-0.0109174 -0.212362 0)
(-0.011748 -0.25287 0)
(-0.003728 -0.256353 0)
(0.00403826 0.065673 0)
(0.00883239 0.106194 0)
(0.0120859 0.121633 0)
(0.0150095 0.130309 0)
(0.0178476 0.135382 0)
(0.0206064 0.13684 0)
(0.0228017 0.1349 0)
(0.024558 0.129726 0)
(0.0257172 0.122184 0)
(0.0264246 0.113303 0)
(0.0268161 0.103707 0)
(0.0269941 0.0937964 0)
(0.0270363 0.0837951 0)
(0.0269955 0.0738075 0)
(0.0269038 0.0638615 0)
(0.0267764 0.0539434 0)
(0.0266167 0.0440226 0)
(0.026419 0.03407 0)
(0.0261714 0.0240712 0)
(0.0258579 0.0140384 0)
(0.0254598 0.00402011 0)
(0.0249578 -0.00588998 0)
(0.0243343 -0.0155514 0)
(0.0235713 -0.0247796 0)
(0.0226535 -0.0333697 0)
(0.0215699 -0.0411486 0)
(0.0203144 -0.0480311 0)
(0.0188867 -0.0540607 0)
(0.0172902 -0.0594079 0)
(0.0155268 -0.0643365 0)
(0.0135881 -0.0691838 0)
(0.0114394 -0.0744119 0)
(0.00898961 -0.0807963 0)
(0.006048 -0.0898636 0)
(0.00236342 -0.104456 0)
(-0.00202925 -0.128415 0)
(-0.00650749 -0.164227 0)
(-0.00964764 -0.210505 0)
(-0.0115232 -0.255607 0)
(-0.00321498 -0.264411 0)
(0.00444007 0.0588681 0)
(0.0104569 0.101391 0)
(0.0147012 0.118011 0)
(0.0185097 0.126993 0)
(0.0221496 0.132179 0)
(0.0256416 0.133985 0)
(0.0286623 0.132526 0)
(0.0311485 0.127963 0)
(0.0329771 0.120995 0)
(0.0342559 0.112537 0)
(0.0351347 0.103238 0)
(0.0357283 0.0935268 0)
(0.0361255 0.0836554 0)
(0.0363883 0.0737532 0)
(0.036554 0.0638688 0)
(0.03664 0.0540041 0)
(0.0366481 0.0441404 0)
(0.0365686 0.0342572 0)
(0.0363836 0.0243463 0)
(0.0360695 0.0144238 0)
(0.0355982 0.00453969 0)
(0.0349413 -0.00521294 0)
(0.0340724 -0.0146964 0)
(0.0329659 -0.0237302 0)
(0.0316043 -0.0321165 0)
(0.0299833 -0.0396899 0)
(0.0281125 -0.0463728 0)
(0.0260153 -0.0522142 0)
(0.0237218 -0.0573863 0)
(0.021259 -0.0621471 0)
(0.0186397 -0.0668131 0)
(0.0158476 -0.071803 0)
(0.0128085 -0.0778256 0)
(0.00933746 -0.0863206 0)
(0.00515761 -0.100164 0)
(0.0002265 -0.123653 0)
(-0.00486755 -0.159974 0)
(-0.00845118 -0.208088 0)
(-0.0113621 -0.25773 0)
(-0.00285439 -0.272279 0)
(0.00458705 0.0511894 0)
(0.0117085 0.0954954 0)
(0.0168683 0.113451 0)
(0.021491 0.122865 0)
(0.025886 0.128223 0)
(0.0301118 0.130326 0)
(0.0339314 0.129362 0)
(0.0372071 0.12546 0)
(0.039795 0.119143 0)
(0.041747 0.111195 0)
(0.0432069 0.102276 0)
(0.0443016 0.0928364 0)
(0.0451275 0.0831579 0)
(0.045753 0.0733968 0)
(0.0462214 0.0636251 0)
(0.046553 0.0538639 0)
(0.0467501 0.0441093 0)
(0.0468009 0.0343517 0)
(0.0466829 0.024591 0)
(0.0463663 0.0148486 0)
(0.0458157 0.0051775 0)
(0.0449942 -0.00433048 0)
(0.0438682 -0.013541 0)
(0.0424061 -0.0222811 0)
(0.0405896 -0.0303666 0)
(0.038422 -0.0376488 0)
(0.0359285 -0.0440655 0)
(0.0331552 -0.0496766 0)
(0.0301574 -0.0546572 0)
(0.0269848 -0.0592566 0)
(0.0236702 -0.0637677 0)
(0.0202173 -0.0685629 0)
(0.0165692 -0.0742754 0)
(0.0125492 -0.0822506 0)
(0.00785801 -0.0953635 0)
(0.00238471 -0.118327 0)
(-0.00336255 -0.155114 0)
(-0.00730777 -0.20515 0)
(-0.0114085 -0.259254 0)
(-0.00228623 -0.280017 0)
(0.00441264 0.0429868 0)
(0.0124727 0.0886419 0)
(0.018467 0.108012 0)
(0.0238379 0.117972 0)
(0.0289517 0.123545 0)
(0.0338822 0.125914 0)
(0.0384731 0.125389 0)
(0.0425691 0.122133 0)
(0.0459932 0.116517 0)
(0.0487289 0.109178 0)
(0.0508771 0.100729 0)
(0.052566 0.0916436 0)
(0.0539004 0.0822333 0)
(0.054955 0.0726827 0)
(0.0557777 0.063089 0)
(0.0563926 0.0534944 0)
(0.0568033 0.043912 0)
(0.0569974 0.0343457 0)
(0.05695 0.0248052 0)
(0.0566269 0.0153191 0)
(0.0559873 0.00594387 0)
(0.0549877 -0.00322976 0)
(0.0535894 -0.0120722 0)
(0.0517586 -0.020421 0)
(0.0494796 -0.0281127 0)
(0.0467651 -0.0350224 0)
(0.0436568 -0.0411104 0)
(0.0402211 -0.0464512 0)
(0.0365341 -0.0512226 0)
(0.0326645 -0.0556636 0)
(0.028661 -0.0600414 0)
(0.0245441 -0.0646807 0)
(0.020278 -0.070134 0)
(0.0157031 -0.0776427 0)
(0.0105006 -0.0900442 0)
(0.00449467 -0.112435 0)
(-0.00193352 -0.149631 0)
(-0.00619146 -0.201685 0)
(-0.0115547 -0.260126 0)
(-0.00167819 -0.287712 0)
(0.00387065 0.0347412 0)
(0.0126239 0.0810073 0)
(0.0193684 0.10176 0)
(0.0254355 0.112361 0)
(0.0312247 0.118172 0)
(0.0368269 0.120785 0)
(0.0421522 0.120623 0)
(0.0470586 0.117944 0)
(0.0513595 0.113027 0)
(0.0549691 0.106364 0)
(0.0579242 0.0984886 0)
(0.0603183 0.0898593 0)
(0.0622547 0.0808089 0)
(0.0638143 0.0715528 0)
(0.0650507 0.062216 0)
(0.0659923 0.0528644 0)
(0.0666455 0.0435299 0)
(0.0669991 0.0342315 0)
(0.0670273 0.0249903 0)
(0.0666934 0.0158435 0)
(0.0659542 0.00685116 0)
(0.0647626 -0.00189665 0)
(0.0630776 -0.0102763 0)
(0.0608693 -0.0181419 0)
(0.0581297 -0.0253559 0)
(0.0548833 -0.0318223 0)
(0.0511881 -0.0375282 0)
(0.0471271 -0.042564 0)
(0.042791 -0.0471085 0)
(0.0382609 -0.0513886 0)
(0.0335952 -0.0556458 0)
(0.0288268 -0.0601579 0)
(0.0239444 -0.0653993 0)
(0.0188165 -0.072498 0)
(0.0131178 -0.08421 0)
(0.00660538 -0.105962 0)
(-0.000559923 -0.143518 0)
(-0.0051102 -0.197772 0)
(-0.0117932 -0.260461 0)
(-0.000764874 -0.295398 0)
(0.00299599 0.0270177 0)
(0.0120684 0.0728179 0)
(0.0194606 0.0947677 0)
(0.026174 0.106074 0)
(0.0325826 0.112151 0)
(0.0388251 0.114967 0)
(0.0448472 0.115112 0)
(0.0505209 0.112902 0)
(0.0556927 0.108627 0)
(0.0602154 0.102655 0)
(0.0640611 0.0954299 0)
(0.0672717 0.0873637 0)
(0.0699185 0.0787862 0)
(0.072075 0.0699318 0)
(0.0737976 0.0609515 0)
(0.0751197 0.0519363 0)
(0.0760523 0.0429398 0)
(0.076587 0.033998 0)
(0.0766996 0.0251456 0)
(0.0763542 0.0164286 0)
(0.0755091 0.00791043 0)
(0.0741172 -0.000320968 0)
(0.0721419 -0.00814724 0)
(0.0695627 -0.015448 0)
(0.0663839 -0.0221139 0)
(0.0626448 -0.0280813 0)
(0.0584178 -0.0333642 0)
(0.0537964 -0.0380667 0)
(0.0488783 -0.0423657 0)
(0.0437478 -0.0464746 0)
(0.0384655 -0.0506079 0)
(0.0330734 -0.0550076 0)
(0.0275894 -0.0600784 0)
(0.0219182 -0.0668275 0)
(0.0157487 -0.07789 0)
(0.00876575 -0.0989638 0)
(0.000804267 -0.136794 0)
(-0.00390323 -0.193248 0)
(-0.0123446 -0.260187 0)
(0.000316333 -0.303076 0)
(0.00193576 0.0203378 0)
(0.0108112 0.0643768 0)
(0.0186725 0.0871596 0)
(0.0259532 0.0991538 0)
(0.0329342 0.10553 0)
(0.0397599 0.108494 0)
(0.0464468 0.108886 0)
(0.0528533 0.107061 0)
(0.058838 0.103329 0)
(0.0642597 0.0980137 0)
(0.0690211 0.0914682 0)
(0.073108 0.0840462 0)
(0.0765501 0.0760518 0)
(0.079394 0.0677191 0)
(0.0816844 0.0592149 0)
(0.0834529 0.0506512 0)
(0.0847134 0.0421022 0)
(0.0854622 0.0336225 0)
(0.085679 0.0252605 0)
(0.0853331 0.0170718 0)