/*--------------------------------*- C++ -*----------------------------------*\
  =========                 |
  \\      /  F ield         | OpenFOAM: The Open Source CFD Toolbox
   \\    /   O peration     | Website:  https://openfoam.org
    \\  /    A nd           | Version:  12
     \\/     M anipulation  |
\*---------------------------------------------------------------------------*/
FoamFile
{
    format      ascii;
    class       volScalarField;
    location    "8";
    object      epsilon;
}
// * * * * * * * * * * * * * * * * * * * * * * * * * * * * * * * * * * * * * //

dimensions      [0 2 -3 0 0 0 0];

internalField   nonuniform List<scalar> 
1600
(
2.80746e-05
9.46887e-05
0.000183107
0.000182441
0.000167044
0.000171386
0.000222379
0.000379668
0.000571014
0.000825665
0.0012699
0.0015806
0.00173868
0.00193082
0.00223191
0.0026185
0.00297591
0.00338931
0.00378515
0.00424223
0.00470705
0.00524226
0.0058193
0.00649494
0.00728033
0.00797605
0.0086888
0.00929438
0.00982079
0.010106
0.0102195
0.0100179
0.00920758
0.00783044
0.00589748
0.0035012
0.00170262
0.000715032
0.000227921
4.73376e-05
0.000135834
0.000170323
0.00020798
0.0001984
0.000191563
0.000229476
0.000404245
0.000871236
0.00156198
0.00257884
0.00449726
0.00539484
0.00547451
0.00512293
0.0047935
0.00464356
0.00451533
0.00447489
0.00446766
0.00456475
0.00469765
0.00490649
0.00513078
0.00541763
0.00576346
0.00618837
0.00666286
0.00721136
0.00775637
0.00822203
0.00843845
0.00847871
0.00792544
0.00687666
0.00512703
0.00297354
0.00124643
0.000543176
0.000196288
7.97402e-05
0.000411358
0.000435124
0.000439047
0.000416163
0.000469106
0.000782371
0.00171252
0.0035179
0.00564923
0.00652257
0.00635135
0.00541098
0.00495612
0.00435914
0.00396632
0.00366191
0.00342542
0.00327036
0.00317782
0.00313799
0.00312674
0.00316326
0.00326715
0.00341212
0.0035988
0.00382636
0.00410034
0.00442947
0.00481732
0.00528633
0.00582375
0.00633127
0.00656808
0.00652821
0.00569104
0.00387284
0.00124994
0.000342816
0.000122934
6.54276e-05
0.000945469
0.000849836
0.000837833
0.000894046
0.0013061
0.00254769
0.00482271
0.00643267
0.00680744
0.00617159
0.00529879
0.00414423
0.00348267
0.00297733
0.00272519
0.00248779
0.00236914
0.00229256
0.00226092
0.00225348
0.00228179
0.00233789
0.00241585
0.00251671
0.0026398
0.00278966
0.00297069
0.00318899
0.00345018
0.00376122
0.00412566
0.00455844
0.00512998
0.00572412
0.00596249
0.00551247
0.00284351
0.000488158
0.000101022
4.56251e-05
0.00178399
0.00144557
0.00152436
0.00191371
0.00305095
0.00505656
0.00635859
0.0066126
0.00605216
0.00456818
0.00343411
0.00283044
0.00241809
0.00215665
0.00200792
0.00191213
0.00187214
0.00185911
0.00186559
0.00190043
0.0019435
0.00200006
0.00206611
0.00214682
0.00224364
0.00236289
0.00251051
0.00269331
0.00291407
0.00317568
0.00347955
0.00382531
0.00423028
0.00476381
0.00556264
0.00593297
0.00531713
0.00152913
0.000191723
5.31506e-05
0.0029807
0.00228928
0.00257574
0.00336908
0.00488053
0.00602299
0.00629392
0.00583188
0.0041612
0.00299782
0.0024202
0.00206119
0.00183515
0.00171714
0.00165978
0.00163681
0.00163264
0.00164832
0.00167424
0.00170868
0.00174859
0.00179779
0.00185739
0.00193162
0.0020236
0.00213883
0.00228212
0.00245883
0.00267348
0.00292857
0.0032236
0.00356193
0.00392407
0.00432765
0.00483909
0.00553606
0.00583217
0.00409189
0.000586485
0.000100399
0.00448725
0.00337045
0.00383003
0.00475544
0.00568016
0.00595472
0.00562229
0.00405882
0.00276962
0.00215916
0.00183743
0.00163306
0.00153231
0.00148482
0.00146496
0.00145865
0.0014581
0.00146674
0.00147708
0.00149342
0.0015161
0.0015505
0.00159886
0.00166636
0.0017573
0.00187778
0.00203358
0.00223082
0.00247408
0.00276442
0.00309629
0.00345623
0.00383683
0.00422933
0.0046232
0.0051134
0.00548783
0.00538993
0.00149164
0.000227139
0.00609924
0.00455167
0.00497784
0.00552414
0.00572705
0.00547489
0.00417265
0.00272213
0.00202515
0.00168863
0.00150187
0.00139793
0.00134804
0.00132112
0.00130143
0.00128389
0.00126675
0.00125185
0.00124128
0.00123718
0.00123878
0.00125806
0.00129314
0.00135003
0.00143343
0.00154977
0.00170693
0.00191401
0.00218047
0.00251293
0.00290965
0.00335272
0.0038052
0.00423396
0.00460768
0.00500394
0.00540052
0.00554201
0.00326712
0.000569999
0.00748069
0.00563007
0.00580838
0.00586791
0.00547507
0.00443827
0.00288861
0.00200834
0.00160636
0.00140997
0.00129906
0.00123948
0.00120274
0.00116885
0.00113342
0.00109591
0.00105829
0.00102379
0.000995212
0.000978487
0.000972073
0.000975363
0.0010018
0.00104701
0.00111876
0.00122224
0.00136668
0.00156366
0.00182792
0.00217541
0.00261781
0.00315075
0.00373668
0.00429599
0.00477905
0.00506559
0.00541569
0.00560549
0.00495217
0.00154011
0.00849216
0.00642203
0.00630431
0.00580742
0.00486074
0.00333668
0.00213926
0.00160171
0.00135327
0.00123044
0.00115647
0.00110886
0.00106414
0.00101468
0.000961926
0.000908247
0.000857447
0.00081288
0.000777087
0.000753985
0.000743604
0.000741584
0.000759386
0.00079544
0.000854131
0.000941156
0.00106508
0.00123834
0.00147839
0.0018082
0.00225374
0.00283449
0.00354124
0.00430316
0.00497835
0.00536566
0.00559134
0.00573415
0.0055217
0.00273623
0.00921704
0.0069346
0.00651913
0.00556982
0.00405183
0.00249969
0.00170534
0.00135166
0.00118569
0.00110008
0.00103857
0.000986396
0.000928146
0.000864906
0.000800517
0.000738772
0.000683422
0.00063686
0.000600548
0.000576392
0.000565001
0.000561857
0.000573471
0.000602212
0.000649302
0.000720435
0.00082304
0.000968914
0.00117571
0.00146924
0.00188439
0.00246084
0.00322498
0.00414682
0.00507503
0.00567076
0.00592793
0.00602923
0.00588688
0.00389032
0.00960926
0.00715929
0.00645944
0.00509312
0.00328995
0.00199865
0.00143421
0.00118346
0.00106384
0.000993524
0.000931833
0.000869947
0.000800475
0.000728967
0.000659825
0.000596877
0.000542779
0.000498708
0.000465067
0.000442486
0.00043163
0.000428296
0.000436064
0.000458861
0.00049655
0.0005541
0.00063784
0.000758169
0.00093146
0.00118346
0.00155318
0.00209444
0.00286657
0.00389727
0.00510065
0.00599344
0.00631039
0.00638086
0.00623592
0.00482238
0.00959623
0.00714059
0.00627894
0.00456586
0.00267734
0.00167733
0.0012515
0.00106073
0.00096713
0.00090042
0.000833782
0.000763087
0.000687045
0.00061264
0.000543882
0.000483783
0.000433717
0.000393857
0.000363866
0.000343611
0.000333744
0.000330541
0.000335873
0.000354007
0.000384413
0.000431143
0.000499514
0.000598306
0.000741792
0.000953542
0.00127211
0.00175742
0.00249114
0.00355321
0.00494897
0.00628774
0.00680225
0.00686936
0.00653861
0.00569676
0.00947536
0.00702912
0.00594311
0.00403189
0.0022618
0.00145911
0.00111994
0.00096602
0.000886098
0.000817799
0.00074577
0.000669278
0.000590896
0.000517345
0.000451839
0.000396303
0.000351063
0.000315614
0.000289188
0.000271226
0.000262381
0.000259413
0.000263173
0.000277736
0.000302617
0.000341041
0.000397494
0.000479315
0.000598662
0.000776297
0.00104822
0.00147556
0.00215341
0.00319894
0.00467399
0.00642508
0.00731441
0.0074334
0.006992
0.00650512
0.00918673
0.00678239
0.0055496
0.00356821
0.00197873
0.00130334
0.00102031
0.000890789
0.000816724
0.00074547
0.000669372
0.000590121
0.000512299
0.000441664
0.000380545
0.000329874
0.000289255
0.00025778
0.000234463
0.000218515
0.000210582
0.000207862
0.000210595
0.000222424
0.000243083
0.000275148
0.000322429
0.000391072
0.000491272
0.000640716
0.000871337
0.00124148
0.0018533
0.00286122
0.00441736
0.00645784
0.0078425
0.00807131
0.00748977
0.00729569
0.00869008
0.00648236
0.00514988
0.0031959
0.00177737
0.00118876
0.000943229
0.000829714
0.000757557
0.000683705
0.000605235
0.000525505
0.000449859
0.000382949
0.000326318
0.000280127
0.000243533
0.000215407
0.000194664
0.00018043
0.000173244
0.000170749
0.000172808
0.00018253
0.000199921
0.000227089
0.000267339
0.000325938
0.00041154
0.000539165
0.000736444
0.00105625
0.00159881
0.0025365
0.0040943
0.00637018
0.00833381
0.00878973
0.00808737
0.00806348
0.00812144
0.0061538
0.00476967
0.00290702
0.00163165
0.00110297
0.000882908
0.000779783
0.000707896
0.000632418
0.000553062
0.000474281
0.00040149
0.000338358
0.000285797
0.000243437
0.000210175
0.000184771
0.000166104
0.000153293
0.000146677
0.000144365
0.000145981
0.000154067
0.000168884
0.000192211
0.000226964
0.000277763
0.000352094
0.000462808
0.000633636
0.000911519
0.00139163
0.00225591
0.003784
0.0061944
0.00877043
0.00957454
0.00872622
0.00882679
0.00744371
0.00584316
0.00443228
0.00268975
0.00152695
0.00103937
0.000835959
0.000739287
0.000667223
0.000591099
0.00051196
0.000434903
0.000365065
0.000305354
0.000256235
0.000216997
0.000186396
0.000163143
0.000146114
0.00013443
0.000128222
0.000126036
0.000127354
0.000134176
0.000146956
0.000167247
0.000197662
0.000242361
0.000307994
0.00040579
0.000556185
0.000800051
0.00122427
0.00201046
0.00348081
0.00597642
0.00911852
0.0104022
0.00949116
0.00958419
0.00678222
0.00554073
0.00414045
0.00253192
0.00145515
0.000992201
0.000799685
0.000706769
0.000634692
0.000558885
0.000480782
0.000405737
0.000338619
0.000281818
0.000235484
0.0001987
0.000170151
0.000148543
0.000132764
0.000121943
0.000115986
0.000113848
0.000114945
0.000120794
0.000131973
0.000149862
0.000176827
0.000216686
0.000275487
0.00036333
0.00049813
0.000715524
0.00109354
0.00180762
0.00320794
0.0057526
0.00937686
0.0112597
0.0103303
0.0103366
0.00600622
0.00527106
0.00390315
0.00242269
0.00140903
0.000961475
0.000772865
0.000681514
0.000609744
0.000534886
0.000458255
0.000385395
0.000320744
0.000266286
0.00022204
0.000187038
0.000159974
0.000139566
0.000124701
0.000114509
0.000108673
0.000106507
0.000107507
0.000112646
0.000122515
0.000138414
0.000162651
0.000198673
0.00025206
0.000332183
0.000455115
0.000652109
0.000992169
0.00163996
0.00296145
0.00553933
0.00953498
0.012149
0.0112852
0.0110881
0.00537489
0.00504291
0.00371281
0.00235283
0.00139124
0.000940558
0.000754146
0.000662281
0.000590992
0.00051789
0.000443464
0.000372582
0.000309719
0.000256973
0.000214312
0.000180714
0.000154865
0.000135353
0.000121094
0.000111274
0.000105417
0.000103121
0.000104215
0.000108891
0.000117932
0.000132486
0.000154488
0.000187127
0.000235983
0.000310086
0.000424047
0.000605853
0.000916294
0.0015068
0.002745
0.00531062
0.00964385
0.0130483
0.0123522
0.0118302
0.00483648
0.00483234
0.00359272
0.00231812
0.00139836
0.000941894
0.000742735
0.000649103
0.000578516
0.000507356
0.000434686
0.000366248
0.000305895
0.000254978
0.000213542
0.000180684
0.000155072
0.000135675
0.000121458
0.000111608
0.000105581
0.000103025
0.000103854
0.000107987
0.000116492
0.000130318
0.000150967
0.00018154
0.000227126
0.000296002
0.000402765
0.000573493
0.000861362
0.00140377
0.00256139
0.00509057
0.00969411
0.0139621
0.0135393
0.0125698
0.00435874
0.0046565
0.00351716
0.00232423
0.00142223
0.000952218
0.000743585
0.000640681
0.000569894
0.000501371
0.000432911
0.000366892
0.000307418
0.000257004
0.000215851
0.00018314
0.000157701
0.000138386
0.000124196
0.000114343
0.000108295
0.000105815
0.000106519
0.00011007
0.000117788
0.000130603
0.000150267
0.000179716
0.000223543
0.000289279
0.000391537
0.000554297
0.000824939
0.00132831
0.0024103
0.00488139
0.0097119
0.0149054
0.0148309
0.0132936
0.00392352
0.00451908
0.0035029
0.00235188
0.0014727
0.000977146
0.000750246
0.000641104
0.00056781
0.000501624
0.000434788
0.000370449
0.000312316
0.000262685
0.000221957
0.000189422
0.00016406
0.00014472
0.000130439
0.000120459
0.000114251
0.000111626
0.000112262
0.000115502
0.000122788
0.000135148
0.000153879
0.000181639
0.000223188
0.000287174
0.000387172
0.000545609
0.000806976
0.00127768
0.0022931
0.00468914
0.00970735
0.0158539
0.0162383
0.0140065
0.00351545
0.00441313
0.00351918
0.00241482
0.00155044
0.00102593
0.000767179
0.000645561
0.000569534
0.000504076
0.000439871
0.000378377
0.000322327
0.00027369
0.00023319
0.00020051
0.00017481
0.000155081
0.000140412
0.000130065
0.000123512
0.000120639
0.000121232
0.000124303
0.000131343
0.000143519
0.00016193
0.000189117
0.000229469
0.000290748
0.00038707
0.000543397
0.00080061
0.0012525
0.00220789
0.00452261
0.00967391
0.0167971
0.0177684
0.0146945
0.00312834
0.0043382
0.00356508
0.00251337
0.00165488
0.00109806
0.000801667
0.000657597
0.00057508
0.000509961
0.00044907
0.000390419
0.000336297
0.000288672
0.000248457
0.0002156
0.000189478
0.000169248
0.000154084
0.000143296
0.000136354
0.000133215
0.000133797
0.000136808
0.00014377
0.000155976
0.00017437
0.000201392
0.000241326
0.000302021
0.00039764
0.000551991
0.000803979
0.00124373
0.00215459
0.00438541
0.00963991
0.0177229
0.0194244
0.0153601
0.00274984
0.00427584
0.00364719
0.00264605
0.00179273
0.00119863
0.000857232
0.000682595
0.000587065
0.000520106
0.000461155
0.000405355
0.000353497
0.000307222
0.000267549
0.00023467
0.000208204
0.000187492
0.00017183
0.000160604
0.000153287
0.000149914
0.00015052
0.000153572
0.000160624
0.000173062
0.000191726
0.000219006
0.000259123
0.000319903
0.000415697
0.000571487
0.000825588
0.00125159
0.00213089
0.00427613
0.00961938
0.0186491
0.0211837
0.0159896
0.00237916
0.00422217
0.00375745
0.00279513
0.00195825
0.00133187
0.000940744
0.000726828
0.000610346
0.000535926
0.000476568
0.0004229
0.000373394
0.000328845
0.000290129
0.000257583
0.000231042
0.000210042
0.000194019
0.000182472
0.000174874
0.000171386
0.000172068
0.000175266
0.000182585
0.000195445
0.00021464
0.000242573
0.000283487
0.000345345
0.000442699
0.000601241
0.000859587
0.00128367
0.0021262
0.00418763
0.00955673
0.0195663
0.0230258
0.0165876
0.00200238
0.00412708
0.00384038
0.00299115
0.00215422
0.00149941
0.00105706
0.000795888
0.000649358
0.000560731
0.000496999
0.000443616
0.000395921
0.000353216
0.000315849
0.000284094
0.000257903
0.00023698
0.00022089
0.000209278
0.000201587
0.000198232
0.000199065
0.000202534
0.00021032
0.000223789
0.000243766
0.000272748
0.000315088
0.000379045
0.000479373
0.000642655
0.000908283
0.00133782
0.00215376
0.00414358
0.00949597
0.02045
0.0248954
0.0171407
0.00166143
0.00400213
0.00388208
0.00320638
0.00237817
0.00170592
0.00121616
0.000901306
0.000713991
0.000601454
0.000526625
0.000469633
0.000421884
0.000380407
0.000344444
0.000313848
0.000288488
0.000268128
0.000252403
0.000241128
0.000233628
0.000230794
0.000231885
0.000235786
0.000244283
0.000258568
0.000279605
0.000310095
0.000354578
0.000421821
0.000526712
0.000696805
0.000972019
0.00141312
0.00221049
0.00412755
0.00942682
0.0212424
0.0267126
0.0176601
0.0013736
0.00374281
0.00392037
0.00341503
0.00260867
0.00193879
0.0014177
0.0010521
0.000816618
0.000669632
0.00057443
0.000507202
0.000455261
0.000412723
0.000377101
0.00034734
0.000322892
0.000303393
0.000288387
0.000277868
0.000270841
0.000269007
0.000270485
0.000275019
0.000284537
0.000299921
0.000322394
0.000355029
0.000402578
0.000474612
0.000585939
0.000765474
0.00105284
0.00151275
0.00230086
0.00414942
0.00939145
0.0219546
0.0283932
0.0181396
0.00111517
0.00321323
0.00398093
0.00361621
0.00285392
0.00219651
0.00166324
0.00125857
0.000973294
0.000782063
0.000654899
0.00056752
0.000504121
0.00045569
0.000417426
0.000386814
0.000362418
0.000343462
0.000329106
0.000319524
0.000313079
0.000312635
0.000314628
0.000320018
0.000330927
0.000347863
0.00037238
0.000408181
0.00046013
0.000539081
0.000659247
0.000851954
0.00115481
0.0016425
0.00243568
0.00424583
0.0093848
0.0225618
0.0298576
0.018604
0.000878949
0.00242365
0.00391268
0.00369886
0.00308682
0.00246009
0.00194193
0.00152328
0.00120093
0.00096411
0.000795201
0.000675387
0.0005892
0.000525769
0.000478094
0.000441806
0.000414128
0.000393487
0.000378335
0.000368702
0.000362542
0.000362808
0.000365485
0.000372043
0.000384578
0.000403828
0.000431434
0.000472168
0.000530637
0.000619906
0.000752554
0.000964733
0.00128916
0.00181922
0.00263946
0.00445125
0.00951902
0.0231705
0.0310006
0.019073
0.000757348
0.00170272
0.00363324
0.00363505
0.0033187
0.0027385
0.00225448
0.00184633
0.00150779
0.00123598
0.00102442
0.000863422
0.000742426
0.000651866
0.000584064
0.000533556
0.000495878
0.000468511
0.000448711
0.000436406
0.000428172
0.000428248
0.000431106
0.000438471
0.000453019
0.000475923
0.000508505
0.000557465
0.000626334
0.000732367
0.000884511
0.00112891
0.00148854
0.00208949
0.00297984
0.00487095
0.00992258
0.0239042
0.0316966
0.0193844
0.000783318
0.00132143
0.00298325
0.00343778
0.00332866
0.00301203
0.00260951
0.0022488
0.00192415
0.00163768
0.00139324
0.00119083
0.00102715
0.000897458
0.000795967
0.000717372
0.000657089
0.000612177
0.000579374
0.000557572
0.000542888
0.000538034
0.000540394
0.000548176
0.000564657
0.000593996
0.000635926
0.000700653
0.00078921
0.000927087
0.00111603
0.00142274
0.00185194
0.00258818
0.00364026
0.00577706
0.0109627
0.0250445
0.0319785
0.0194941
0.00111289
0.0011728
0.0022471
0.00298016
0.00328412
0.00321642
0.003016
0.00273745
0.00245859
0.00218746
0.0019311
0.00169832
0.00149446
0.00131981
0.00117623
0.00106204
0.000972073
0.000902185
0.00084908
0.000811502
0.000786549
0.000775416
0.000778371
0.000789918
0.000815004
0.000861126
0.00092779
0.00103099
0.0011683
0.00138038
0.00165722
0.00210623
0.00269887
0.00372828
0.00514074
0.00782238
0.0133015
0.0269376
0.0319622
0.0193844
0.00180309
0.00136606
0.00209145
0.00293469
0.00345102
0.00368661
0.00369087
0.00358406
0.00336525
0.00311119
0.00284911
0.00259212
0.00235362
0.00214021
0.00195479
0.00179768
0.00167131
0.00157147
0.00149973
0.00145186
0.00142756
0.00143209
0.00145311
0.00150056
0.00158048
0.00169851
0.00185202
0.00207416
0.00236571
0.00278436
0.00331965
0.00413978
0.00516899
0.00688408
0.00901681
0.0130017
0.0185565
0.0302589
0.0318061
0.0187742
0.00299968
0.00209
0.00292627
0.0039592
0.00475726
0.00533086
0.00558903
0.00562171
0.00551094
0.00527488
0.0049978
0.00470929
0.00443585
0.00419065
0.00398571
0.00382158
0.00370853
0.00363172
0.00362831
0.00365396
0.00372406
0.00386232
0.00406159
0.00431605
0.0046615
0.00507647
0.00562653
0.00627635
0.00708819
0.0081195
0.00950509
0.011306
0.0135641
0.0166922
0.0203396
0.0260709
0.0311118
0.0362774
0.0326981
0.0176568
0.0050036
0.00487481
0.00823054
0.0110096
0.0125652
0.0134131
0.0137085
0.0136582
0.0134664
0.0131118
0.0127322
0.0123726
0.0120836
0.0118737
0.0117786
0.0118037
0.0119084
0.0121317
0.0125003
0.0129845
0.0136078
0.0143366
0.0152537
0.0162793
0.0175731
0.0189594
0.0207587
0.022585
0.0250869
0.0274404
0.0307209
0.0336187
0.0378827
0.0412461
0.046311
0.0490021
0.0479285
0.0423544
0.0330952
0.0153859
0.00339385
0.00522649
0.00677602
0.00836621
0.00982125
0.0111316
0.0122494
0.0131578
0.0137979
0.0142009
0.0144508
0.014529
0.0145006
0.0144197
0.0142633
0.01407
0.0138573
0.0136526
0.0134365
0.0132501
0.0130624
0.0129202
0.0127824
0.0126994
0.012625
0.012615
0.0126301
0.0126848
0.0127957
0.0129156
0.0131559
0.0133561
0.0138061
0.0141625
0.0149443
0.0154546
0.0163072
0.0163852
0.0158306
0.013225
)
;

boundaryField
{
    movingWall
    {
        type            epsilonWallFunction;
        value           nonuniform List<scalar> 
40
(
0.00339385
0.00522649
0.00677602
0.00836621
0.00982125
0.0111316
0.0122494
0.0131578
0.0137979
0.0142009
0.0144508
0.014529
0.0145006
0.0144197
0.0142633
0.01407
0.0138573
0.0136526
0.0134365
0.0132501
0.0130624
0.0129202
0.0127824
0.0126994
0.012625
0.012615
0.0126301
0.0126848
0.0127957
0.0129156
0.0131559
0.0133561
0.0138061
0.0141625
0.0149443
0.0154546
0.0163072
0.0163852
0.0158306
0.013225
)
;
    }
    fixedWalls
    {
        type            epsilonWallFunction;
        value           nonuniform List<scalar> 
120
(
2.80746e-05
0.000135834
0.000411358
0.000945469
0.00178399
0.0029807
0.00448725
0.00609924
0.00748069
0.00849216
0.00921704
0.00960926
0.00959623
0.00947536
0.00918673
0.00869008
0.00812144
0.00744371
0.00678222
0.00600622
0.00537489
0.00483648
0.00435874
0.00392352
0.00351545
0.00312834
0.00274984
0.00237916
0.00200238
0.00166143
0.0013736
0.00111517
0.000878949
0.000757348
0.000783318
0.00111289
0.00180309
0.00299968
0.0050036
0.00339385
4.73376e-05
7.97402e-05
6.54276e-05
4.56251e-05
5.31506e-05
0.000100399
0.000227139
0.000569999
0.00154011
0.00273623
0.00389032
0.00482238
0.00569676
0.00650512
0.00729569
0.00806348
0.00882679
0.00958419
0.0103366
0.0110881
0.0118302
0.0125698
0.0132936
0.0140065
0.0146945
0.0153601
0.0159896
0.0165876
0.0171407
0.0176601
0.0181396
0.018604
0.019073
0.0193844
0.0194941
0.0193844
0.0187742
0.0176568
0.0153859
0.013225
2.80746e-05
9.46887e-05
0.000183107
0.000182441
0.000167044
0.000171386
0.000222379
0.000379668
0.000571014
0.000825665
0.0012699
0.0015806
0.00173868
0.00193082
0.00223191
0.0026185
0.00297591
0.00338931
0.00378515
0.00424223
0.00470705
0.00524226
0.0058193
0.00649494
0.00728033
0.00797605
0.0086888
0.00929438
0.00982079
0.010106
0.0102195
0.0100179
0.00920758
0.00783044
0.00589748
0.0035012
0.00170262
0.000715032
0.000227921
4.73376e-05
)
;
    }
    frontAndBack
    {
        type            empty;
    }
}


// ************************************************************************* //
