/*--------------------------------*- C++ -*----------------------------------*\
  =========                 |
  \\      /  F ield         | OpenFOAM: The Open Source CFD Toolbox
   \\    /   O peration     | Website:  https://openfoam.org
    \\  /    A nd           | Version:  12
     \\/     M anipulation  |
\*---------------------------------------------------------------------------*/
FoamFile
{
    format      ascii;
    class       volScalarField;
    location    "8";
    object      k;
}
// * * * * * * * * * * * * * * * * * * * * * * * * * * * * * * * * * * * * * //

dimensions      [0 2 -2 0 0 0 0];

internalField   nonuniform List<scalar> 
1600
(
2.19432e-06
7.40014e-06
1.43094e-05
1.42569e-05
1.30534e-05
1.33927e-05
1.73776e-05
2.96689e-05
4.46207e-05
6.45252e-05
9.9234e-05
0.000123507
0.000135858
0.000150874
0.000174404
0.000204613
0.000232539
0.000264843
0.000295772
0.000331488
0.000367806
0.000409627
0.000454715
0.000507507
0.000568874
0.000623232
0.000678921
0.000726235
0.000767364
0.000789648
0.000798513
0.000782758
0.000719454
0.00061186
0.000460832
0.0002736
0.000133059
5.58822e-05
1.78136e-05
3.69987e-06
1.06168e-05
4.7735e-05
9.11097e-05
9.72214e-05
9.4561e-05
0.000101431
0.000143982
0.00024657
0.00034471
0.000472259
0.000678452
0.000778546
0.000801859
0.00080479
0.000805672
0.000842723
0.000861223
0.000905384
0.000937484
0.000987536
0.00103371
0.00109087
0.0011463
0.00120383
0.00125667
0.00132356
0.00138789
0.00145739
0.00151572
0.00155017
0.00156238
0.00152728
0.00142011
0.00122662
0.000967188
0.000595442
0.000268427
0.000111686
3.91241e-05
6.23213e-06
3.21515e-05
0.000125823
0.000196802
0.000209822
0.000228917
0.00030228
0.000501849
0.000813848
0.00106006
0.00114587
0.00108309
0.000972968
0.000920175
0.000901495
0.000896883
0.000902342
0.000913194
0.000931855
0.000951946
0.000979702
0.00100512
0.00103319
0.00106211
0.00109508
0.00113039
0.00116901
0.00120871
0.00125017
0.00129041
0.00132842
0.00134971
0.00135787
0.00134151
0.00123154
0.00104809
0.000674402
0.000251768
9.21232e-05
3.52118e-05
5.11347e-06
7.38943e-05
0.000259716
0.000357819
0.000398471
0.000498212
0.000734207
0.00107562
0.00125172
0.00127479
0.00112934
0.00102029
0.000936516
0.000900821
0.000886633
0.00088194
0.000882409
0.00088918
0.000899389
0.000911162
0.000925864
0.000942114
0.000962682
0.000983294
0.00100663
0.00103063
0.0010564
0.00108316
0.00111085
0.00113782
0.00116229
0.00117968
0.00118783
0.00118958
0.00116671
0.00110643
0.000931124
0.000408695
9.81658e-05
2.65714e-05
3.56555e-06
0.000139423
0.000454842
0.000588592
0.000682288
0.000880794
0.00117908
0.00132482
0.00133227
0.00119812
0.00101134
0.00091906
0.000874988
0.000854905
0.000846098
0.00084328
0.000846811
0.000859295
0.000872673
0.000889582
0.000906819
0.000924896
0.000942864
0.00096097
0.000980015
0.00100046
0.00102313
0.00104818
0.00107511
0.00110172
0.00112351
0.00113854
0.00114567
0.00114779
0.0011381
0.0011092
0.00103815
0.00078345
0.000218111
3.70314e-05
4.15318e-06
0.00023294
0.000696563
0.000866927
0.00100053
0.00121675
0.00134131
0.00135156
0.00123904
0.00100898
0.000897
0.000845609
0.000822385
0.000813382
0.000811426
0.000818976
0.000832681
0.000849071
0.000865183
0.000882124
0.000898272
0.000914455
0.000930391
0.000947187
0.000965293
0.000986136
0.00101027
0.00103835
0.00107032
0.00110531
0.00114181
0.00116153
0.00116683
0.00116464
0.00114933
0.0011161
0.00106133
0.000926126
0.000451648
8.06261e-05
7.84427e-06
0.000350661
0.00094536
0.00114529
0.00126121
0.00134866
0.00136109
0.00126795
0.00102788
0.0008843
0.000822437
0.000796122
0.000786695
0.000785056
0.000793848
0.000807362
0.000821374
0.000834823
0.000847139
0.000858382
0.000867966
0.000877529
0.00088873
0.000903046
0.000921505
0.000944797
0.000974081
0.00100995
0.00105252
0.00110078
0.00115191
0.00120469
0.00124282
0.00125175
0.00124351
0.00119929
0.00111031
0.000977749
0.000704312
0.000163232
1.77461e-05
0.000476618
0.00119122
0.00136513
0.00140131
0.0013959
0.00129907
0.00107964
0.00088924
0.000808269
0.000775609
0.000764192
0.000762036
0.000768679
0.000780306
0.000789858
0.000797375
0.000801574
0.000803522
0.000804375
0.000805866
0.000810108
0.000817645
0.000829889
0.000847689
0.000872319
0.000904954
0.000946777
0.000998716
0.00106091
0.00113164
0.00120567
0.0012743
0.00131855
0.00132659
0.00131469
0.00124027
0.00107436
0.000804575
0.000279371
4.45326e-05
0.000584554
0.00138897
0.00152311
0.00149105
0.00136144
0.00115928
0.000921195
0.000807762
0.000761681
0.000745194
0.000741153
0.000743254
0.000750718
0.000754274
0.000755176
0.000752118
0.000745929
0.000739184
0.000733567
0.000730972
0.000730469
0.000735264
0.000745718
0.000762609
0.000787143
0.000820523
0.000864297
0.000920204
0.000989965
0.00107439
0.00117151
0.00127326
0.0013575
0.00139647
0.00139968
0.00136106
0.0012267
0.000957432
0.000506929
0.000120331
0.000663582
0.00152228
0.00162366
0.00148987
0.0012754
0.00100376
0.000830357
0.00075818
0.000730733
0.000722005
0.000720327
0.000721747
0.000722328
0.000717215
0.000708007
0.000695559
0.000682147
0.000669861
0.000659973
0.000654639
0.000652713
0.000655007
0.000664677
0.000680605
0.000704413
0.000737039
0.000780131
0.000835733
0.0009065
0.000995329
0.00110418
0.0012311
0.00136482
0.001456
0.00148335
0.00146708
0.00135124
0.00107687
0.000616873
0.000213791
0.000720219
0.00161079
0.00168457
0.00146223
0.00115596
0.000895684
0.000774261
0.00072496
0.000706445
0.000699931
0.000697382
0.000694269
0.000686166
0.000672207
0.00065505
0.000636461
0.000618752
0.000603426
0.00059148
0.000584808
0.000582249
0.000583127
0.000592192
0.000607268
0.000630133
0.00066157
0.000703136
0.000756839
0.000825558
0.000913113
0.00102381
0.00116035
0.00131878
0.00147896
0.00156154
0.00157393
0.00150122
0.00124076
0.000760399
0.000303967
0.000750857
0.00164409
0.00168659
0.00140168
0.00104515
0.000828032
0.000735902
0.000698695
0.000683893
0.000677316
0.000671608
0.000661655
0.000645551
0.000624862
0.000602507
0.00058045
0.000560533
0.000543783
0.000530911
0.00052347
0.000520514
0.000520488
0.000528691
0.000542878
0.000564643
0.000594784
0.00063472
0.000686318
0.000752359
0.000836968
0.000945902
0.00108574
0.00126012
0.00146055
0.00161233
0.0016575
0.00161841
0.00137323
0.000877974
0.000376792
0.000749838
0.00164047
0.00167007
0.0013252
0.000958292
0.000780762
0.00070623
0.000675426
0.000662001
0.000653981
0.00064334
0.000626731
0.000604516
0.000579372
0.000554032
0.000530249
0.000509335
0.000491966
0.000478621
0.000470409
0.00046689
0.00046646
0.000473365
0.000486539
0.000507057
0.000535831
0.000574164
0.00062375
0.000687069
0.000767946
0.000872303
0.00100846
0.00118514
0.00140361
0.00163366
0.00174291
0.00174434
0.00152746
0.000997938
0.000445109
0.00074039
0.00162084
0.00163045
0.00124509
0.000898225
0.000745113
0.000681234
0.000653927
0.000641002
0.000630098
0.000614343
0.000592334
0.000565937
0.000538123
0.000511249
0.000486714
0.000465398
0.000447737
0.000434048
0.000425073
0.00042098
0.000420154
0.000425667
0.00043767
0.000456833
0.000484162
0.000520935
0.000568761
0.000629888
0.000707789
0.000808168
0.000940147
0.00111621
0.00134687
0.00162345
0.00181302
0.00184722
0.00166622
0.00111731
0.000508267
0.000717834
0.00157758
0.00157128
0.00117476
0.000853642
0.000716402
0.000659264
0.000634183
0.000620922
0.000606651
0.000586453
0.000560489
0.000531434
0.000502153
0.000474593
0.000449811
0.000428382
0.00041059
0.000396651
0.00038699
0.000382339
0.000381119
0.000385314
0.000396027
0.000413723
0.000439467
0.00047457
0.000520625
0.000579713
0.000654901
0.000751268
0.000877567
0.00104769
0.00127828
0.00157473
0.00185615
0.00195009
0.00181058
0.00123751
0.000570034
0.000679026
0.00152237
0.00150514
0.0011163
0.00081888
0.00069253
0.000639957
0.00061654
0.000602142
0.000584711
0.000561023
0.000532348
0.000501708
0.000471707
0.000443934
0.000419175
0.000397807
0.000380012
0.000365943
0.000355785
0.000350615
0.000349029
0.000352076
0.000361454
0.000377598
0.000401614
0.00043489
0.000479093
0.000536283
0.000609288
0.000702659
0.000824577
0.000989504
0.00121835
0.00152587
0.00187332
0.00203625
0.00194715
0.00136098
0.00063002
0.000634594
0.00145934
0.00143708
0.00106865
0.000791384
0.000672562
0.000623233
0.000600932
0.000585127
0.00056508
0.000538845
0.000508419
0.000476901
0.00044663
0.000418912
0.000394341
0.000373164
0.000355491
0.000341415
0.000331065
0.0003254
0.000323482
0.000325589
0.000333665
0.000348219
0.000370389
0.000401655
0.000443813
0.000499
0.000569913
0.000660562
0.000778154
0.000936628
0.00116014
0.00147627
0.00187526
0.00211729
0.00208102
0.00148478
0.000689656
0.000581639
0.00139805
0.001372
0.00103068
0.000770066
0.00065623
0.00060906
0.000587366
0.000570224
0.000548213
0.000520258
0.000488787
0.000456858
0.00042659
0.000399091
0.000374822
0.000353946
0.000336517
0.000322581
0.000312218
0.000306148
0.000303922
0.000305299
0.000312171
0.000325165
0.000345443
0.000374573
0.000414514
0.000467585
0.000536545
0.000625094
0.000739483
0.000892319
0.00110814
0.00142265
0.00184921
0.00218673
0.00220935
0.00161675
0.000748829
0.000529954
0.00133418
0.00131148
0.00100146
0.000754314
0.000642933
0.000597104
0.000575734
0.000557576
0.000534269
0.000505294
0.000473312
0.000441293
0.000411198
0.000384015
0.000360123
0.000339628
0.000322537
0.00030885
0.000298597
0.000292222
0.000289691
0.000290512
0.000296319
0.00030785
0.000326282
0.000353234
0.000390825
0.000441613
0.000508552
0.000595232
0.000707072
0.000855157
0.00106345
0.00137335
0.00181673
0.00224719
0.00233372
0.00174983
0.00080761
0.000469321
0.00127997
0.00125757
0.000979366
0.000743747
0.00063318
0.000587507
0.000565999
0.000547159
0.000523181
0.000493792
0.000461704
0.000429817
0.000400016
0.000373216
0.000349748
0.000329678
0.000312978
0.000299602
0.00028954
0.000282978
0.000280115
0.000280497
0.000285382
0.000295607
0.000312337
0.000337179
0.000372393
0.0004208
0.000485658
0.000570696
0.000680684
0.000824982
0.00102581
0.00132792
0.00177966
0.00228914
0.00245545
0.00189128
0.00086632
0.000419992
0.00122126
0.00121133
0.000963969
0.000739023
0.000625781
0.000579554
0.000557869
0.000538786
0.000514727
0.000485453
0.000453657
0.000422142
0.00039272
0.000366304
0.000343252
0.000323608
0.000307306
0.00029426
0.000284416
0.000277822
0.000274651
0.00027488
0.000279067
0.000288128
0.000303182
0.00032593
0.000358853
0.000404861
0.000467554
0.000551053
0.000659722
0.000801223
0.000995425
0.00128886
0.00174519
0.00231886
0.00257466
0.0020354
0.000924299
0.000377922
0.00116079
0.00116744
0.000956997
0.00074056
0.000623599
0.000574082
0.000551285
0.000532188
0.000508589
0.000479952
0.000448701
0.000417601
0.000388627
0.00036281
0.000340312
0.000321151
0.000305236
0.000292458
0.000282747
0.000276127
0.000272755
0.000272949
0.000276628
0.00028487
0.000298782
0.000319853
0.000350358
0.000393592
0.000454094
0.000536134
0.000643928
0.0007835
0.000971652
0.00125492
0.00171244
0.0023343
0.00269112
0.00218743
0.000982083
0.000340592
0.00110125
0.0011283
0.00095761
0.000746206
0.000625187
0.000570403
0.000546168
0.000527115
0.000504357
0.000476755
0.000446681
0.000416779
0.00038864
0.000363107
0.000340807
0.000321816
0.000306054
0.000293409
0.000283802
0.000277226
0.000273805
0.000273855
0.000276827
0.000284292
0.000297489
0.000317619
0.000346539
0.000387773
0.000445906
0.000526157
0.00063341
0.000772137
0.000954613
0.0012269
0.00168149
0.0023418
0.00280547
0.00234358
0.00103862
0.000306585
0.00104378
0.00109324
0.00096066
0.00075879
0.000630427
0.000570736
0.000542414
0.000523352
0.000501787
0.000475772
0.000447104
0.000417853
0.000390165
0.000365102
0.000343163
0.000324478
0.000308995
0.000296622
0.000287256
0.000280864
0.000277566
0.000277664
0.000280282
0.000287013
0.000299221
0.000317932
0.000345656
0.000385717
0.00044238
0.000521411
0.00062837
0.000766842
0.000945431
0.00120456
0.00165132
0.00234429
0.00291596
0.00250624
0.00109432
0.000274699
0.000987824
0.00106285
0.000967959
0.000775766
0.000641486
0.000573329
0.000541428
0.000520581
0.000500066
0.000476109
0.000448727
0.000420728
0.00039396
0.000369643
0.000348278
0.00033005
0.000314942
0.000302843
0.000293666
0.000287385
0.00028415
0.000284338
0.000286842
0.000293223
0.00030494
0.000322831
0.00034903
0.000386917
0.00044181
0.000520039
0.00062683
0.000765313
0.000941893
0.00118827
0.00162338
0.00234267
0.00302341
0.00267332
0.00114807
0.000244452
0.000933776
0.00103639
0.000973696
0.000803084
0.000659957
0.000580026
0.000542644
0.000520202
0.000500117
0.000477275
0.000452042
0.000425756
0.00040021
0.000376719
0.000355948
0.000338162
0.000323403
0.000311601
0.000302677
0.000296594
0.000293568
0.00029391
0.000296485
0.000302803
0.000314292
0.000331712
0.000357126
0.000393854
0.000447035
0.000523613
0.000630113
0.00076894
0.000941894
0.00117913
0.00159745
0.00233389
0.00312485
0.00284606
0.00120006
0.000214876
0.000878768
0.00101325
0.000974846
0.000835955
0.000687165
0.000593919
0.000546952
0.000521329
0.000500916
0.000479627
0.000456392
0.000432027
0.000408022
0.000385655
0.000365703
0.000348535
0.000334267
0.000322885
0.000314339
0.000308573
0.00030595
0.00030651
0.000309306
0.000315821
0.000327306
0.000344521
0.000369449
0.000405358
0.000457483
0.000533163
0.00063948
0.000778889
0.000950254
0.00117545
0.0015745
0.00232523
0.00322146
0.00301922
0.00124924
0.000185913
0.000823373
0.000989705
0.000972862
0.000871686
0.000721568
0.000616454
0.000556683
0.000525133
0.000503204
0.000482842
0.000461459
0.000439144
0.000416964
0.000396056
0.000377232
0.000360949
0.000347405
0.000336644
0.00032867
0.000323372
0.000321412
0.000322258
0.000325411
0.000332362
0.000344046
0.000361295
0.00038604
0.000421514
0.000472915
0.000547765
0.000653603
0.000792963
0.0009621
0.00117487
0.00155267
0.00230514
0.00331359
0.00319368
0.00129596
0.000156471
0.000761924
0.000968235
0.000966972
0.000905127
0.000765628
0.000649129
0.000575766
0.000534056
0.000508335
0.000487531
0.000467361
0.000446914
0.000426675
0.000407504
0.000390142
0.000375075
0.000362561
0.000352695
0.000345552
0.000340919
0.000339919
0.000341124
0.000344769
0.000352383
0.00036444
0.000381932
0.000406764
0.000442164
0.000493232
0.000567487
0.000672557
0.000811208
0.000977994
0.0011792
0.00153428
0.00227789
0.00339762
0.00336105
0.00133917
0.000129828
0.000704243
0.000944408
0.000959208
0.000923489
0.000816075
0.000693789
0.00060669
0.000552369
0.000519009
0.000495402
0.000475072
0.000455784
0.000437227
0.000419825
0.000404124
0.00039055
0.000379364
0.000370691
0.000364627
0.000360987
0.000361079
0.000362769
0.000367125
0.000375563
0.000388136
0.000406056
0.000431217
0.000466873
0.000517929
0.000591686
0.000695438
0.000832185
0.000995568
0.0011851
0.00151627
0.0022431
0.00346846
0.00351813
0.00137974
0.000107336
0.000640652
0.000928007
0.000951959
0.000932126
0.000862474
0.000747827
0.000651825
0.000584376
0.00054022
0.000510132
0.000487014
0.000467231
0.000449421
0.000433345
0.000419173
0.000407153
0.000397435
0.000390202
0.000385278
0.000383275
0.00038397
0.000386486
0.000391989
0.00040118
0.0004144
0.000432927
0.000458634
0.000494826
0.000546062
0.000619245
0.000720863
0.000854166
0.00101283
0.00119103
0.00149978
0.00220526
0.00352294
0.00365379
0.0014172
8.71406e-05
0.000560141
0.000920603
0.000950849
0.000938292
0.000896003
0.000805243
0.000711062
0.000634544
0.000578594
0.000538716
0.000509173
0.00048588
0.000466608
0.000450361
0.000436754
0.000425727
0.000417122
0.000411225
0.000407269
0.000407019
0.000408267
0.000411606
0.000418315
0.000428311
0.000442259
0.000461541
0.00048795
0.000524847
0.000576212
0.000648443
0.000746796
0.000874882
0.00102737
0.00119535
0.0014871
0.00217225
0.00355957
0.00375743
0.00145347
6.86805e-05
0.000464469
0.00090116
0.000951812
0.000945809
0.000921529
0.000861566
0.000779447
0.000702817
0.000638966
0.000588816
0.000550008
0.00051969
0.000495656
0.000476497
0.000461308
0.000449653
0.000440989
0.000435431
0.000432155
0.000432487
0.000434299
0.000438468
0.000445863
0.000456545
0.000471161
0.000491216
0.000518306
0.000555826
0.000606906
0.00067746
0.000771271
0.000892627
0.00103831
0.00119967
0.00148208
0.00215688
0.00358375
0.00380776
0.00149012
5.91783e-05
0.000385011
0.000852084
0.000946872
0.000949532
0.000941752
0.000915151
0.000858045
0.000790408
0.000726336
0.0006698
0.000621946
0.000582385
0.000550174
0.0005244
0.000504092
0.00048872
0.000477302
0.000470003
0.000465166
0.000464916
0.0004663
0.000469962
0.000477181
0.000487956
0.000502778
0.000523256
0.000550643
0.000588333
0.000638399
0.000706483
0.000795046
0.00090958
0.00105048
0.00121377
0.00149443
0.00215533
0.00360857
0.00382594
0.00151443
6.12093e-05
0.000356646
0.000755883
0.000922336
0.000954995
0.000964022
0.000959441
0.000939761
0.000896769
0.000841616
0.000786032
0.00073371
0.000686677
0.00064577
0.000611253
0.000582801
0.000560126
0.000542494
0.000529556
0.000520734
0.000515249
0.000514733
0.000516414
0.00052105
0.000530478
0.000544512
0.000564716
0.000591879
0.000629355
0.000678274
0.00074435
0.00082964
0.000941308
0.00108589
0.00126751
0.00157501
0.00224093
0.00365467
0.00380947
0.00152299
8.6967e-05
0.000379788
0.000667336
0.000867993
0.000965949
0.00101048
0.00103249
0.00103303
0.00102193
0.000993172
0.000947782
0.000897984
0.00084798
0.000800552
0.000757385
0.000719131
0.00068635
0.000658724
0.000636617
0.000619121
0.000607184
0.000598742
0.000597643
0.000599895
0.000606169
0.000618934
0.000639307
0.00066748
0.000706859
0.000758427
0.000828292
0.00092013
0.00104259
0.00121182
0.00143694
0.00180568
0.00247046
0.00372593
0.00370279
0.0015144
0.000140907
0.00047457
0.000684631
0.000889949
0.00102656
0.00112129
0.00118248
0.00120935
0.00121411
0.00120477
0.00117954
0.00113657
0.00108661
0.00103395
0.000982313
0.000933592
0.000890242
0.00085152
0.000821108
0.000796542
0.000780716
0.000769253
0.000767635
0.000770816
0.000779633
0.000797603
0.000825584
0.000864387
0.000918429
0.00098912
0.00108434
0.00120981
0.00137612
0.00160621
0.00190549
0.00236357
0.00299273
0.00385638
0.00360173
0.00146668
0.000234416
0.000667626
0.000857681
0.0010868
0.00126923
0.00141256
0.00150904
0.00155866
0.00156332
0.001554
0.00152996
0.00148864
0.0014408
0.00139085
0.00134331
0.00129948
0.00126274
0.00123322
0.00121208
0.00119576
0.0011945
0.00119917
0.00121194
0.00123788
0.00127645
0.00132713
0.00139601
0.00147865
0.00158493
0.00171349
0.00188583
0.00208923
0.002355
0.00266991
0.00306604
0.00356146
0.003996
0.0041397
0.00347367
0.00137927
0.000390989
0.00110949
0.00152682
0.00191516
0.00215252
0.00230221
0.00238533
0.0024179
0.00240935
0.00238859
0.00236013
0.00232698
0.00229495
0.00226665
0.00224708
0.00223433
0.0022368
0.00224664
0.0022687
0.00230377
0.00235222
0.00241507
0.00249267
0.00258523
0.00269738
0.00282355
0.00297827
0.00314051
0.00335121
0.0035488
0.00381989
0.00404479
0.00439046
0.00461027
0.00502032
0.0051018
0.00495922
0.00434579
0.00303791
0.00120183
0.000265202
0.000408399
0.000529474
0.00065372
0.000767413
0.000869797
0.000957145
0.00102811
0.00107813
0.00110961
0.00112914
0.00113524
0.00113303
0.0011267
0.00111448
0.00109937
0.00108275
0.00106675
0.00104986
0.00103529
0.00102063
0.0010095
0.000998733
0.000992235
0.000986416
0.000985614
0.000987091
0.000990264
0.00100019
0.00100857
0.00102824
0.00104309
0.00107899
0.00110596
0.00116788
0.00120741
0.00127404
0.00128006
0.00123676
0.00103323
)
;

boundaryField
{
    movingWall
    {
        type            kqRWallFunction;
        value           nonuniform List<scalar> 
40
(
0.000265202
0.000408399
0.000529474
0.00065372
0.000767413
0.000869797
0.000957145
0.00102811
0.00107813
0.00110961
0.00112914
0.00113524
0.00113303
0.0011267
0.00111448
0.00109937
0.00108275
0.00106675
0.00104986
0.00103529
0.00102063
0.0010095
0.000998733
0.000992235
0.000986416
0.000985614
0.000987091
0.000990264
0.00100019
0.00100857
0.00102824
0.00104309
0.00107899
0.00110596
0.00116788
0.00120741
0.00127404
0.00128006
0.00123676
0.00103323
)
;
    }
    fixedWalls
    {
        type            kqRWallFunction;
        value           nonuniform List<scalar> 
120
(
2.19432e-06
1.06168e-05
3.21515e-05
7.38943e-05
0.000139423
0.00023294
0.000350661
0.000476618
0.000584554
0.000663582
0.000720219
0.000750857
0.000749838
0.00074039
0.000717834
0.000679026
0.000634594
0.000581639
0.000529954
0.000469321
0.000419992
0.000377922
0.000340592
0.000306585
0.000274699
0.000244452
0.000214876
0.000185913
0.000156471
0.000129828
0.000107336
8.71406e-05
6.86805e-05
5.91783e-05
6.12093e-05
8.6967e-05
0.000140907
0.000234416
0.000390989
0.000265202
3.69987e-06
6.23213e-06
5.11347e-06
3.56555e-06
4.15318e-06
7.84427e-06
1.77461e-05
4.45326e-05
0.000120331
0.000213791
0.000303967
0.000376792
0.000445109
0.000508267
0.000570034
0.00063002
0.000689656
0.000748829
0.00080761
0.00086632
0.000924299
0.000982083
0.00103862
0.00109432
0.00114807
0.00120006
0.00124924
0.00129596
0.00133917
0.00137974
0.0014172
0.00145347
0.00149012
0.00151443
0.00152299
0.0015144
0.00146668
0.00137927
0.00120183
0.00103323
2.19432e-06
7.40014e-06
1.43094e-05
1.42569e-05
1.30534e-05
1.33927e-05
1.73776e-05
2.96689e-05
4.46207e-05
6.45252e-05
9.9234e-05
0.000123507
0.000135858
0.000150874
0.000174404
0.000204613
0.000232539
0.000264843
0.000295772
0.000331488
0.000367806
0.000409627
0.000454715
0.000507507
0.000568874
0.000623232
0.000678921
0.000726235
0.000767364
0.000789648
0.000798513
0.000782758
0.000719454
0.00061186
0.000460832
0.0002736
0.000133059
5.58822e-05
1.78136e-05
3.69987e-06
)
;
    }
    frontAndBack
    {
        type            empty;
    }
}


// ************************************************************************* //
