/*--------------------------------*- C++ -*----------------------------------*\
  =========                 |
  \\      /  F ield         | OpenFOAM: The Open Source CFD Toolbox
   \\    /   O peration     | Website:  https://openfoam.org
    \\  /    A nd           | Version:  12
     \\/     M anipulation  |
\*---------------------------------------------------------------------------*/
FoamFile
{
    format      ascii;
    class       volScalarField;
    location    "8";
    object      nut;
}
// * * * * * * * * * * * * * * * * * * * * * * * * * * * * * * * * * * * * * //

dimensions      [0 2 -1 0 0 0 0];

internalField   nonuniform List<scalar> 
1600
(
1.54358e-08
5.20505e-08
1.00642e-07
1.0027e-07
9.1803e-08
9.41893e-08
1.22217e-07
2.08661e-07
3.13811e-07
4.53835e-07
6.979e-07
8.68569e-07
9.55419e-07
1.06104e-06
1.22653e-06
1.43898e-06
1.63537e-06
1.86255e-06
2.08004e-06
2.33122e-06
2.58662e-06
2.88073e-06
3.19778e-06
3.56904e-06
4.00059e-06
4.38282e-06
4.77442e-06
5.10712e-06
5.39633e-06
5.55303e-06
5.61536e-06
5.50457e-06
5.05944e-06
4.30289e-06
3.24086e-06
1.92424e-06
9.35859e-07
3.93064e-07
1.25303e-07
2.60261e-08
7.46832e-08
1.20404e-06
3.59212e-06
4.28769e-06
4.20102e-06
4.03502e-06
4.61543e-06
6.28038e-06
6.84661e-06
7.78356e-06
9.21155e-06
1.01119e-05
1.05705e-05
1.13786e-05
1.21873e-05
1.37645e-05
1.47837e-05
1.64864e-05
1.77048e-05
1.92279e-05
2.04721e-05
2.18281e-05
2.30491e-05
2.40749e-05
2.46605e-05
2.54775e-05
2.60189e-05
2.6508e-05
2.66576e-05
2.6304e-05
2.60349e-05
2.47601e-05
2.29014e-05
1.96918e-05
1.64209e-05
1.07312e-05
5.20268e-06
2.0668e-06
7.01841e-07
4.38368e-08
2.26165e-07
3.27453e-06
7.93948e-06
9.52098e-06
1.00537e-05
1.05111e-05
1.32359e-05
1.69452e-05
1.79024e-05
1.81174e-05
1.66227e-05
1.57458e-05
1.53759e-05
1.67791e-05
1.82527e-05
2.00114e-05
2.19106e-05
2.3897e-05
2.56648e-05
2.75283e-05
2.90797e-05
3.03718e-05
3.10753e-05
3.1631e-05
3.19552e-05
3.21438e-05
3.20675e-05
3.17564e-05
3.11093e-05
3.00442e-05
2.81526e-05
2.62101e-05
2.46601e-05
2.09094e-05
1.7372e-05
1.05694e-05
4.5641e-06
2.22802e-06
9.07708e-07
3.59677e-08
5.19777e-07
7.14342e-06
1.37534e-05
1.59837e-05
1.71038e-05
1.90428e-05
2.15909e-05
2.19212e-05
2.14851e-05
1.85993e-05
1.76814e-05
1.90471e-05
2.09704e-05
2.37631e-05
2.56876e-05
2.81688e-05
3.00353e-05
3.17554e-05
3.30483e-05
3.4236e-05
3.50084e-05
3.56766e-05
3.60197e-05
3.62368e-05
3.62142e-05
3.60036e-05
3.5544e-05
3.48255e-05
3.37711e-05
3.23251e-05
3.03583e-05
2.7857e-05
2.48263e-05
2.14021e-05
1.84783e-05
1.4155e-05
5.28671e-06
1.77665e-06
6.29007e-07
2.5078e-08
9.80662e-07
1.28803e-05
2.04542e-05
2.18928e-05
2.28853e-05
2.47442e-05
2.48425e-05
2.41577e-05
2.13468e-05
2.01509e-05
2.21369e-05
2.4344e-05
2.72024e-05
2.98748e-05
3.18742e-05
3.37519e-05
3.54968e-05
3.68673e-05
3.81767e-05
3.89432e-05
3.96135e-05
4.00035e-05
4.02262e-05
4.02636e-05
4.01506e-05
3.98715e-05
3.93865e-05
3.86243e-05
3.74872e-05
3.57733e-05
3.35284e-05
3.0881e-05
2.80285e-05
2.4471e-05
1.99059e-05
1.63489e-05
1.03893e-05
2.79997e-06
6.43735e-07
2.92076e-08
1.63837e-06
1.90751e-05
2.62606e-05
2.67421e-05
2.7301e-05
2.68838e-05
2.6121e-05
2.3692e-05
2.20186e-05
2.41558e-05
2.65908e-05
2.95308e-05
3.24458e-05
3.45092e-05
3.63691e-05
3.81242e-05
3.97412e-05
4.08711e-05
4.18296e-05
4.25007e-05
4.30408e-05
4.33346e-05
4.34722e-05
4.34149e-05
4.32505e-05
4.29475e-05
4.25195e-05
4.19317e-05
4.1128e-05
4.00657e-05
3.76672e-05
3.44012e-05
3.11091e-05
2.74713e-05
2.31676e-05
1.83124e-05
1.32359e-05
4.48662e-06
9.97556e-07
5.51591e-08
2.46624e-06
2.38643e-05
3.08228e-05
3.01043e-05
2.88195e-05
2.79999e-05
2.57353e-05
2.34274e-05
2.5411e-05
2.81944e-05
3.1045e-05
3.41077e-05
3.61991e-05
3.81982e-05
4.00454e-05
4.16269e-05
4.30175e-05
4.40352e-05
4.48952e-05
4.5401e-05
4.57127e-05
4.5847e-05
4.59041e-05
4.58638e-05
4.57165e-05
4.54765e-05
4.5142e-05
4.46931e-05
4.40787e-05
4.31989e-05
4.21842e-05
4.02213e-05
3.67542e-05
3.29055e-05
2.79995e-05
2.16981e-05
1.56782e-05
8.28304e-06
1.60763e-06
1.24783e-07
3.35202e-06
2.80577e-05
3.36937e-05
3.19923e-05
3.0621e-05
2.77415e-05
2.51413e-05
2.6144e-05
2.90334e-05
3.20623e-05
3.49957e-05
3.73859e-05
3.94483e-05
4.14791e-05
4.3144e-05
4.45697e-05
4.56497e-05
4.6418e-05
4.69127e-05
4.72428e-05
4.76797e-05
4.78268e-05
4.79331e-05
4.7904e-05
4.77767e-05
4.75585e-05
4.72633e-05
4.69009e-05
4.64568e-05
4.58644e-05
4.49634e-05
4.35901e-05
4.11202e-05
3.74086e-05
3.37605e-05
2.76672e-05
1.92357e-05
1.05126e-05
2.15e-06
3.13129e-07
4.11102e-06
3.08398e-05
3.59458e-05
3.4099e-05
3.04686e-05
2.72526e-05
2.64397e-05
2.92396e-05
3.25047e-05
3.54464e-05
3.80566e-05
4.01124e-05
4.2172e-05
4.38067e-05
4.52842e-05
4.64558e-05
4.73188e-05
4.80325e-05
4.86638e-05
4.91461e-05
4.94023e-05
4.98842e-05
4.99586e-05
4.99912e-05
4.98441e-05
4.95757e-05
4.91927e-05
4.87382e-05
4.82531e-05
4.77561e-05
4.71845e-05
4.63086e-05
4.43852e-05
4.08549e-05
3.68942e-05
3.29131e-05
2.50073e-05
1.47179e-05
4.67026e-06
8.46142e-07
4.66674e-06
3.24758e-05
3.76353e-05
3.44e-05
3.01186e-05
2.71763e-05
2.90074e-05
3.23001e-05
3.55119e-05
3.81297e-05
4.03801e-05
4.22802e-05
4.4128e-05
4.56259e-05
4.69003e-05
4.7941e-05
4.88418e-05
4.96804e-05
5.04458e-05
5.11545e-05
5.15639e-05
5.20684e-05
5.23601e-05
5.24114e-05
5.22845e-05
5.19472e-05
5.14276e-05
5.0762e-05
5.00251e-05
4.93094e-05
4.86872e-05
4.8123e-05
4.73409e-05
4.43383e-05
3.97784e-05
3.61016e-05
2.93895e-05
1.82013e-05
6.20242e-06
1.50338e-06
5.06501e-06
3.36743e-05
3.91772e-05
3.45488e-05
2.96808e-05
2.88846e-05
3.16378e-05
3.49948e-05
3.78817e-05
4.00799e-05
4.21451e-05
4.39792e-05
4.56546e-05
4.70196e-05
4.82414e-05
4.93486e-05
5.04182e-05
5.14573e-05
5.24294e-05
5.34011e-05
5.40021e-05
5.44681e-05
5.50371e-05
5.51129e-05
5.50377e-05
5.46762e-05
5.4063e-05
5.32065e-05
5.2172e-05
5.1074e-05
5.00619e-05
4.92425e-05
4.85354e-05
4.74721e-05
4.32422e-05
3.93162e-05
3.4216e-05
2.29804e-05
8.83974e-06
2.13752e-06
5.28041e-06
3.398e-05
3.9634e-05
3.47183e-05
2.98817e-05
3.08746e-05
3.39836e-05
3.71249e-05
3.95677e-05
4.15573e-05
4.35648e-05
4.52911e-05
4.6855e-05
4.82063e-05
4.95152e-05
5.08028e-05
5.20981e-05
5.33639e-05
5.45468e-05
5.57348e-05
5.64932e-05
5.69271e-05
5.76894e-05
5.78051e-05
5.77866e-05
5.74609e-05
5.68454e-05
5.59148e-05
5.46925e-05
5.32729e-05
5.18457e-05
5.06552e-05
4.98544e-05
4.92621e-05
4.58695e-05
4.12547e-05
3.73563e-05
2.6598e-05
1.11251e-05
2.64963e-06
5.27322e-06
3.39191e-05
3.99786e-05
3.46166e-05
3.08699e-05
3.27085e-05
3.58676e-05
3.87073e-05
4.07826e-05
4.27492e-05
4.46756e-05
4.63267e-05
4.78711e-05
4.93119e-05
5.07934e-05
5.2306e-05
5.38323e-05
5.53062e-05
5.66609e-05
5.79599e-05
5.8784e-05
5.92442e-05
6.00425e-05
6.0182e-05
6.01947e-05
5.99345e-05
5.93972e-05
5.85249e-05
5.72744e-05
5.56626e-05
5.38336e-05
5.20815e-05
5.07437e-05
4.99012e-05
4.85344e-05
4.34808e-05
4.02578e-05
3.05679e-05
1.37077e-05
3.13002e-06
5.20677e-06
3.36374e-05
4.02571e-05
3.46044e-05
3.21039e-05
3.42452e-05
3.72942e-05
3.98395e-05
4.1733e-05
4.3693e-05
4.55469e-05
4.71813e-05
4.8783e-05
5.03762e-05
5.20623e-05
5.37976e-05
5.55273e-05
5.71653e-05
5.86324e-05
5.99567e-05
6.07902e-05
6.12445e-05
6.19643e-05
6.20731e-05
6.20675e-05
6.1861e-05
6.1444e-05
6.07409e-05
5.96468e-05
5.80793e-05
5.60782e-05
5.39109e-05
5.20726e-05
5.10375e-05
5.07495e-05
4.60437e-05
4.19855e-05
3.36141e-05
1.6069e-05
3.57413e-06
5.04812e-06
3.30248e-05
4.00394e-05
3.48089e-05
3.31443e-05
3.54404e-05
3.8338e-05
4.06347e-05
4.24856e-05
4.44314e-05
4.62425e-05
4.7911e-05
4.96156e-05
5.13835e-05
5.32696e-05
5.52019e-05
5.70984e-05
5.88585e-05
6.0393e-05
6.16824e-05
6.24768e-05
6.28911e-05
6.34488e-05
6.34614e-05
6.33736e-05
6.31727e-05
6.28651e-05
6.23786e-05
6.15668e-05
6.0246e-05
5.82971e-05
5.58294e-05
5.33039e-05
5.13975e-05
5.05232e-05
4.80156e-05
4.36413e-05
3.65539e-05
1.84024e-05
4.00846e-06
4.7752e-06
3.21772e-05
3.95912e-05
3.50925e-05
3.39551e-05
3.631e-05
3.90776e-05
4.12321e-05
4.30749e-05
4.50045e-05
4.68037e-05
4.85353e-05
5.03579e-05
5.22933e-05
5.4355e-05
5.64519e-05
5.8483e-05
6.03363e-05
6.19131e-05
6.31406e-05
6.38624e-05
6.42109e-05
6.45579e-05
6.44188e-05
6.41867e-05
6.39239e-05
6.36704e-05
6.33794e-05
6.28955e-05
6.19679e-05
6.03382e-05
5.79345e-05
5.51163e-05
5.26688e-05
5.11799e-05
4.95809e-05
4.47775e-05
3.8821e-05
2.06129e-05
4.43025e-06
4.46274e-06
3.11468e-05
3.8969e-05
3.5356e-05
3.45454e-05
3.69098e-05
3.95939e-05
4.16793e-05
4.35284e-05
4.5442e-05
4.72493e-05
4.90512e-05
5.09829e-05
5.30593e-05
5.52626e-05
5.74909e-05
5.96293e-05
6.15554e-05
6.31578e-05
6.43497e-05
6.49702e-05
6.52347e-05
6.53562e-05
6.50357e-05
6.46189e-05
6.42361e-05
6.39723e-05
6.38218e-05
6.36481e-05
6.31623e-05
6.19769e-05
5.97871e-05
5.67351e-05
5.36961e-05
5.1835e-05
5.10935e-05
4.60026e-05
4.07078e-05
2.27375e-05
4.84958e-06
4.09035e-06
3.0105e-05
3.8223e-05
3.5545e-05
3.49521e-05
3.72893e-05
3.99372e-05
4.19998e-05
4.38593e-05
4.57595e-05
4.75822e-05
4.94412e-05
5.14558e-05
5.36363e-05
5.59432e-05
5.8269e-05
6.04892e-05
6.24725e-05
6.40958e-05
6.52621e-05
6.57871e-05
6.5959e-05
6.5869e-05
6.5366e-05
6.47531e-05
6.42152e-05
6.38842e-05
6.38055e-05
6.38882e-05
6.38489e-05
6.32288e-05
6.1515e-05
5.85336e-05
5.49709e-05
5.23309e-05
5.14959e-05
4.71964e-05
4.22327e-05
2.47861e-05
5.26565e-06
3.72689e-06
2.89136e-05
3.73868e-05
3.56499e-05
3.51916e-05
3.74951e-05
4.01258e-05
4.22094e-05
4.40847e-05
4.59663e-05
4.77951e-05
4.96926e-05
5.17589e-05
5.39979e-05
5.63609e-05
5.87417e-05
6.10117e-05
6.30303e-05
6.46633e-05
6.58051e-05
6.62617e-05
6.63414e-05
6.60818e-05
6.54207e-05
6.463e-05
6.3935e-05
6.35068e-05
6.34421e-05
6.37126e-05
6.40636e-05
6.40135e-05
6.28847e-05
6.01862e-05
5.63076e-05
5.29152e-05
5.16367e-05
4.84691e-05
4.35324e-05
2.66761e-05
5.67896e-06
3.30051e-06
2.79735e-05
3.64661e-05
3.56316e-05
3.53324e-05
3.75283e-05
4.01943e-05
4.23057e-05
4.41898e-05
4.60559e-05
4.78877e-05
4.9781e-05
5.18384e-05
5.40813e-05
5.64589e-05
5.88605e-05
6.11469e-05
6.31669e-05
6.47833e-05
6.58902e-05
6.63168e-05
6.63034e-05
6.58663e-05
6.507e-05
6.41921e-05
6.34325e-05
6.29079e-05
6.28211e-05
6.32251e-05
6.39037e-05
6.44067e-05
6.3946e-05
6.1737e-05
5.77492e-05
5.35897e-05
5.14591e-05
4.94616e-05
4.46649e-05
2.85262e-05
6.09177e-06
2.95362e-06
2.66181e-05
3.55684e-05
3.5545e-05
3.53312e-05
3.74716e-05
4.00843e-05
4.22927e-05
4.42072e-05
4.60425e-05
4.78276e-05
4.97137e-05
5.17836e-05
5.4016e-05
5.63482e-05
5.86781e-05
6.08596e-05
6.2794e-05
6.43548e-05
6.54272e-05
6.5897e-05
6.58351e-05
6.52531e-05
6.43676e-05
6.33552e-05
6.24426e-05
6.18865e-05
6.19354e-05
6.25134e-05
6.34489e-05
6.44488e-05
6.46542e-05
6.30543e-05
5.91839e-05
5.44645e-05
5.16158e-05
5.01814e-05
4.57222e-05
3.01854e-05
6.49944e-06
2.65777e-06
2.50954e-05
3.41417e-05
3.55573e-05
3.52975e-05
3.71579e-05
3.99352e-05
4.21387e-05
4.40614e-05
4.58841e-05
4.7694e-05
4.94744e-05
5.1309e-05
5.33097e-05
5.54775e-05
5.76871e-05
5.98587e-05
6.18036e-05
6.33789e-05
6.44681e-05
6.4994e-05
6.49902e-05
6.45628e-05
6.37768e-05
6.26959e-05
6.16519e-05
6.09901e-05
6.08546e-05
6.13857e-05
6.26959e-05
6.423e-05
6.50712e-05
6.41409e-05
6.05297e-05
5.53349e-05
5.1845e-05
5.05882e-05
4.66828e-05
3.18065e-05
6.90572e-06
2.39525e-06
2.344e-05
3.25763e-05
3.55092e-05
3.52362e-05
3.69425e-05
3.938e-05
4.19039e-05
4.38792e-05
4.56625e-05
4.72536e-05
4.89439e-05
5.08539e-05
5.2893e-05
5.4974e-05
5.70789e-05
5.9105e-05
6.09179e-05
6.23855e-05
6.33963e-05
6.3871e-05
6.37643e-05
6.33658e-05
6.26604e-05
6.17546e-05
6.09859e-05
6.04216e-05
6.01397e-05
6.05393e-05
6.18602e-05
6.36357e-05
6.51433e-05
6.50443e-05
6.17446e-05
5.62065e-05
5.21301e-05
5.08204e-05
4.75237e-05
3.333e-05
7.30327e-06
2.1561e-06
2.16973e-05
3.07075e-05
3.53157e-05
3.51862e-05
3.66061e-05
3.9076e-05
4.13024e-05
4.34137e-05
4.51755e-05
4.68558e-05
4.85658e-05
5.03147e-05
5.2156e-05
5.40507e-05
5.59515e-05
5.7758e-05
5.93768e-05
6.07071e-05
6.16511e-05
6.21405e-05
6.21171e-05
6.18083e-05
6.12132e-05
6.03795e-05
5.96235e-05
5.91197e-05
5.91999e-05
5.99941e-05
6.13322e-05
6.31974e-05
6.51316e-05
6.55833e-05
6.29624e-05
5.69474e-05
5.23371e-05
5.09523e-05
4.82692e-05
3.48133e-05
7.69484e-06
1.93186e-06
1.99001e-05
2.88901e-05
3.49198e-05
3.49341e-05
3.60995e-05
3.85614e-05
4.08683e-05
4.28253e-05
4.46478e-05
4.638e-05
4.78942e-05
4.94253e-05
5.10372e-05
5.27348e-05
5.44451e-05
5.60837e-05
5.75633e-05
5.87862e-05
5.96744e-05
6.01812e-05
6.02354e-05
6.00196e-05
5.95729e-05
5.89161e-05
5.83125e-05
5.79249e-05
5.79746e-05
5.87157e-05
6.04223e-05
6.28818e-05
6.50765e-05
6.58415e-05
6.37481e-05
5.75562e-05
5.24434e-05
5.10579e-05
4.89781e-05
3.61991e-05
8.07276e-06
1.71915e-06
1.80891e-05
2.71156e-05
3.39495e-05
3.5075e-05
3.56985e-05
3.77697e-05
4.03007e-05
4.23505e-05
4.41417e-05
4.56527e-05
4.71053e-05
4.85111e-05
4.9936e-05
5.14075e-05
5.2889e-05
5.43166e-05
5.5617e-05
5.67129e-05
5.75395e-05
5.8063e-05
5.82245e-05
5.81065e-05
5.78276e-05
5.73978e-05
5.69967e-05
5.67928e-05
5.69956e-05
5.78506e-05
5.95508e-05
6.20546e-05
6.47362e-05
6.61885e-05
6.41976e-05
5.80765e-05
5.23708e-05
5.08544e-05
4.9587e-05
3.75304e-05
8.43833e-06
1.51117e-06
1.62544e-05
2.53346e-05
3.23234e-05
3.50828e-05
3.54552e-05
3.70339e-05
3.94437e-05
4.16658e-05
4.34191e-05
4.48955e-05
4.62469e-05
4.75202e-05
4.87704e-05
5.00308e-05
5.1291e-05
5.25105e-05
5.36349e-05
5.46058e-05
5.53708e-05
5.5905e-05
5.61956e-05
5.61744e-05
5.60671e-05
5.58873e-05
5.5712e-05
5.57178e-05
5.60914e-05
5.70709e-05
5.88808e-05
6.15439e-05
6.44006e-05
6.61348e-05
6.49322e-05
5.83563e-05
5.21769e-05
5.05857e-05
5.00831e-05
3.87286e-05
8.78411e-06
1.30748e-06
1.44511e-05
2.34618e-05
3.0475e-05
3.49215e-05
3.51832e-05
3.63557e-05
3.83731e-05
4.06634e-05
4.25231e-05
4.40278e-05
4.53181e-05
4.64824e-05
4.75826e-05
4.86592e-05
4.97213e-05
5.0751e-05
5.1714e-05
5.25701e-05
5.32802e-05
5.38174e-05
5.4249e-05
5.43187e-05
5.43763e-05
5.44501e-05
5.45068e-05
5.47339e-05
5.52925e-05
5.64072e-05
5.82847e-05
6.09991e-05
6.39473e-05
6.58353e-05
6.48977e-05
5.84274e-05
5.18124e-05
5.00413e-05
5.05046e-05
3.98669e-05
9.11254e-06
1.10043e-06
1.26597e-05
2.197e-05
2.81341e-05
3.42271e-05
3.5185e-05
3.58762e-05
3.74871e-05
3.95305e-05
4.14752e-05
4.3042e-05
4.4314e-05
4.54027e-05
4.6387e-05
4.7318e-05
4.82199e-05
4.90933e-05
4.99221e-05
5.06833e-05
5.13506e-05
5.18899e-05
5.24591e-05
5.26103e-05
5.28204e-05
5.31364e-05
5.34142e-05
5.38569e-05
5.45966e-05
5.58439e-05
5.77636e-05
6.04617e-05
6.33466e-05
6.52058e-05
6.43456e-05
5.81056e-05
5.11301e-05
4.91778e-05
5.08042e-05
4.08387e-05
9.41636e-06
9.13051e-07
1.11531e-05
2.06775e-05
2.58257e-05
3.22747e-05
3.51354e-05
3.5621e-05
3.6754e-05
3.84599e-05
4.03078e-05
4.19427e-05
4.32516e-05
4.43167e-05
4.52281e-05
4.60534e-05
4.6833e-05
4.75848e-05
4.83072e-05
4.89973e-05
4.9624e-05
5.01998e-05
5.0842e-05
5.10775e-05
5.14461e-05
5.19654e-05
5.24366e-05
5.30726e-05
5.39684e-05
5.53258e-05
5.72341e-05
5.98206e-05
6.24666e-05
6.4122e-05
6.31257e-05
5.71822e-05
5.01305e-05
4.8037e-05
5.09697e-05
4.17014e-05
9.70162e-06
7.54873e-07
9.86935e-06
1.97705e-05
2.38827e-05
2.99759e-05
3.45306e-05
3.55027e-05
3.63454e-05
3.76364e-05
3.92236e-05
4.07727e-05
4.20867e-05
4.31565e-05
4.40444e-05
4.4818e-05
4.55275e-05
4.62063e-05
4.68565e-05
4.75167e-05
4.80787e-05
4.88146e-05
4.93257e-05
4.97012e-05
5.02838e-05
5.09077e-05
5.15316e-05
5.23221e-05
5.33225e-05
5.47391e-05
5.65442e-05
5.89e-05
6.10967e-05
6.23687e-05
6.1031e-05
5.54881e-05
4.87874e-05
4.66045e-05
5.08779e-05
4.23171e-05
9.96497e-06
6.12833e-07
8.78812e-06
1.91603e-05
2.25015e-05
2.77637e-05
3.28949e-05
3.50866e-05
3.61562e-05
3.72324e-05
3.85255e-05
3.9883e-05
4.11142e-05
4.21469e-05
4.30009e-05
4.37305e-05
4.43827e-05
4.50087e-05
4.55922e-05
4.62452e-05
4.67198e-05
4.76231e-05
4.79837e-05
4.84629e-05
4.92125e-05
4.98918e-05
5.06044e-05
5.14846e-05
5.24977e-05
5.38798e-05
5.54311e-05
5.74034e-05
5.89157e-05
5.96529e-05
5.7835e-05
5.27976e-05
4.68772e-05
4.52521e-05
5.05436e-05
4.25569e-05
1.022e-05
4.82998e-07
8.01098e-06
1.86798e-05
2.20433e-05
2.60818e-05
3.10677e-05
3.44022e-05
3.58952e-05
3.70177e-05
3.81129e-05
3.92395e-05
4.03113e-05
4.12542e-05
4.20541e-05
4.27414e-05
4.33503e-05
4.39403e-05
4.44802e-05
4.51029e-05
4.55874e-05
4.64333e-05
4.6789e-05
4.73422e-05
4.80896e-05
4.87781e-05
4.94749e-05
5.03353e-05
5.12058e-05
5.23991e-05
5.34761e-05
5.48874e-05
5.54945e-05
5.56258e-05
5.33346e-05
4.90739e-05
4.44123e-05
4.39849e-05
4.98865e-05
4.20932e-05
1.04777e-05
4.16172e-07
7.83513e-06
1.79851e-05
2.2198e-05
2.44508e-05
2.91475e-05
3.34335e-05
3.58883e-05
3.72912e-05
3.84156e-05
3.94146e-05
4.03203e-05
4.11159e-05
4.17911e-05
4.23748e-05
4.28631e-05
4.33498e-05
4.37633e-05
4.43075e-05
4.4624e-05
4.54332e-05
4.5696e-05
4.61088e-05
4.67378e-05
4.73028e-05
4.78034e-05
4.84592e-05
4.89515e-05
4.97375e-05
5.0084e-05
5.07858e-05
5.03928e-05
5.00222e-05
4.75306e-05
4.44961e-05
4.12649e-05
4.21352e-05
4.90274e-05
4.1563e-05
1.06486e-05
4.30467e-07
8.66309e-06
1.7237e-05
2.22712e-05
2.4659e-05
2.77689e-05
3.17483e-05
3.53449e-05
3.76152e-05
3.89261e-05
3.99115e-05
4.06857e-05
4.13156e-05
4.18199e-05
4.22463e-05
4.26126e-05
4.29725e-05
4.32669e-05
4.3562e-05
4.37697e-05
4.40116e-05
4.43196e-05
4.44148e-05
4.4574e-05
4.48531e-05
4.49235e-05
4.51333e-05
4.49993e-05
4.51692e-05
4.46614e-05
4.46807e-05
4.35409e-05
4.30605e-05
4.10036e-05
3.97201e-05
3.86458e-05
4.12272e-05
4.79986e-05
4.08426e-05
1.07087e-05
6.11642e-07
1.10688e-05
1.78365e-05
2.27528e-05
2.55701e-05
2.85712e-05
3.18113e-05
3.50852e-05
3.82296e-05
4.05837e-05
4.18652e-05
4.27328e-05
4.33041e-05
4.37028e-05
4.38918e-05
4.38246e-05
4.36149e-05
4.32867e-05
4.29586e-05
4.25112e-05
4.21849e-05
4.1609e-05
4.1299e-05
4.10026e-05
4.05761e-05
4.00373e-05
3.96471e-05
3.88922e-05
3.84905e-05
3.75034e-05
3.72589e-05
3.61772e-05
3.62481e-05
3.54496e-05
3.61489e-05
3.75134e-05
4.12949e-05
4.63824e-05
3.86068e-05
1.06481e-05
9.91044e-07
1.48379e-05
2.01701e-05
2.4289e-05
2.74828e-05
3.06938e-05
3.4096e-05
3.67257e-05
3.94223e-05
4.19876e-05
4.39499e-05
4.48519e-05
4.51494e-05
4.49558e-05
4.44265e-05
4.3636e-05
4.26777e-05
4.15266e-05
4.04603e-05
3.93309e-05
3.84268e-05
3.71886e-05
3.64968e-05
3.56362e-05
3.46126e-05
3.37091e-05
3.31222e-05
3.24203e-05
3.20902e-05
3.16239e-05
3.18773e-05
3.182e-05
3.29724e-05
3.37286e-05
3.62411e-05
3.86707e-05
4.34391e-05
4.42332e-05
3.67075e-05
1.03123e-05
1.64871e-06
1.91939e-05
2.26245e-05
2.68497e-05
3.04767e-05
3.36867e-05
3.66697e-05
3.88935e-05
3.99126e-05
4.12033e-05
4.21526e-05
4.23515e-05
4.21185e-05
4.15453e-05
4.07466e-05
3.97684e-05
3.8696e-05
3.76884e-05
3.64418e-05
3.52184e-05
3.44825e-05
3.35087e-05
3.2547e-05
3.19532e-05
3.14573e-05
3.12255e-05
3.11732e-05
3.13523e-05
3.18953e-05
3.25444e-05
3.36737e-05
3.47458e-05
3.67989e-05
3.84346e-05
4.15964e-05
4.37867e-05
4.61922e-05
4.25153e-05
3.32121e-05
9.69678e-06
2.74972e-06
2.27263e-05
2.54911e-05
2.99836e-05
3.31869e-05
3.55634e-05
3.7355e-05
3.85236e-05
3.87964e-05
3.91618e-05
3.9374e-05
3.93882e-05
3.92276e-05
3.89428e-05
3.85822e-05
3.80644e-05
3.7813e-05
3.74444e-05
3.70575e-05
3.67871e-05
3.6594e-05
3.66147e-05
3.66603e-05
3.69492e-05
3.72632e-05
3.78451e-05
3.84565e-05
3.93027e-05
4.02901e-05
4.13062e-05
4.27474e-05
4.37979e-05
4.57953e-05
4.6378e-05
4.89803e-05
4.78051e-05
4.61823e-05
4.01311e-05
2.50973e-05
8.44892e-06
1.86511e-06
2.87211e-06
3.72355e-06
4.59724e-06
5.39676e-06
6.11674e-06
6.73102e-06
7.23005e-06
7.58179e-06
7.80313e-06
7.94045e-06
7.98336e-06
7.96777e-06
7.92326e-06
7.83732e-06
7.73102e-06
7.61411e-06
7.5016e-06
7.3828e-06
7.28029e-06
7.17714e-06
7.09881e-06
7.02309e-06
6.97729e-06
6.93636e-06
6.93057e-06
6.94307e-06
6.9576e-06
7.03625e-06
7.08824e-06
7.2329e-06
7.33173e-06
7.58944e-06
7.77291e-06
8.21414e-06
8.48978e-06
8.95839e-06
9.00011e-06
8.69593e-06
7.26515e-06
)
;

boundaryField
{
    movingWall
    {
        type            nutkWallFunction;
        Cmu             0.09;
        kappa           0.41;
        E               9.8;
        value           uniform 0;
    }
    fixedWalls
    {
        type            nutkWallFunction;
        Cmu             0.09;
        kappa           0.41;
        E               9.8;
        value           uniform 0;
    }
    frontAndBack
    {
        type            empty;
    }
}


// ************************************************************************* //
