/*--------------------------------*- C++ -*----------------------------------*\
  =========                 |
  \\      /  F ield         | OpenFOAM: The Open Source CFD Toolbox
   \\    /   O peration     | Website:  https://openfoam.org
    \\  /    A nd           | Version:  12
     \\/     M anipulation  |
\*---------------------------------------------------------------------------*/
FoamFile
{
    format      ascii;
    class       volScalarField;
    location    "8";
    object      p;
}
// * * * * * * * * * * * * * * * * * * * * * * * * * * * * * * * * * * * * * //

dimensions      [0 2 -2 0 0 0 0];

internalField   nonuniform List<scalar> 
1600
(
7.53017e-09
-2.52393e-05
-0.000111726
-0.000232745
-0.00034281
-0.000428206
-0.000506599
-0.000612617
-0.000755205
-0.000934295
-0.00116033
-0.00149348
-0.00191145
-0.00209895
-0.00233573
-0.00292317
-0.00379956
-0.00479946
-0.00575546
-0.00653248
-0.00703324
-0.00719063
-0.00694942
-0.00626307
-0.00516302
-0.00366702
-0.00178314
0.000425565
0.00284061
0.00524146
0.00734481
0.00883545
0.00948903
0.00927595
0.00827866
0.00724108
0.00658874
0.00647589
0.00657793
0.00662631
-1.80751e-05
-6.89615e-05
-0.000165095
-0.00028131
-0.000362245
-0.000404129
-0.000444371
-0.000525388
-0.000653698
-0.000802997
-0.000945446
-0.00117333
-0.00160101
-0.00214892
-0.00277848
-0.00357255
-0.00451623
-0.00551465
-0.006442
-0.0071867
-0.00766382
-0.00781614
-0.00760082
-0.00699719
-0.00598595
-0.00455967
-0.00275456
-0.000627026
0.00169994
0.00405052
0.00616999
0.00775408
0.00855803
0.00850065
0.00770525
0.00669448
0.0061814
0.00624911
0.0064274
0.00651251
-4.51842e-05
-0.000141424
-0.0002658
-0.000375636
-0.000418677
-0.000405625
-0.000395943
-0.000420611
-0.000506743
-0.00071716
-0.00107936
-0.00156575
-0.0022001
-0.00298645
-0.00390351
-0.00489989
-0.00592129
-0.00689948
-0.00776014
-0.00843512
-0.00886454
-0.00899445
-0.00879182
-0.00823892
-0.00731195
-0.00600623
-0.00434798
-0.00238699
-0.000211537
0.0020444
0.00416957
0.00591642
0.0070366
0.00738083
0.0070354
0.00639752
0.00606803
0.00612284
0.00629158
0.00634778
-5.14225e-05
-0.000193883
-0.000357926
-0.000454465
-0.000454933
-0.0004093
-0.000392676
-0.000452562
-0.000643709
-0.00105175
-0.001707
-0.00254496
-0.00349128
-0.00451687
-0.00559848
-0.006684
-0.00772041
-0.00866043
-0.00946037
-0.0100766
-0.0104596
-0.0105625
-0.0103623
-0.00984704
-0.00900397
-0.00783344
-0.0063533
-0.00459863
-0.00262812
-0.000528971
0.00155391
0.00343626
0.00490232
0.00579388
0.00613368
0.00611859
0.00612448
0.00615783
0.00623318
0.00623195
8.1591e-05
-0.000127689
-0.000311716
-0.000407213
-0.000420787
-0.00041465
-0.000478622
-0.000701568
-0.00116
-0.00189481
-0.00287271
-0.00399866
-0.00518421
-0.0063787
-0.0075466
-0.0086592
-0.00968808
-0.0106055
-0.0113655
-0.0119242
-0.0122474
-0.0123209
-0.0121295
-0.0116587
-0.0109032
-0.00986665
-0.00855922
-0.00700195
-0.00523362
-0.00331914
-0.00134873
0.000563008
0.00228957
0.00371893
0.00479868
0.00555004
0.00604053
0.0062719
0.00622775
0.0061568
0.000425769
0.000139295
-7.05949e-05
-0.000207076
-0.000301938
-0.000437554
-0.000722297
-0.00125232
-0.00207146
-0.00315023
-0.00440326
-0.00573323
-0.00706919
-0.00836047
-0.00957963
-0.0107067
-0.0117118
-0.0125655
-0.0132408
-0.0137227
-0.0139946
-0.0140456
-0.0138666
-0.0134442
-0.0127779
-0.0118714
-0.0107315
-0.00937045
-0.00780904
-0.00608174
-0.00423942
-0.00235014
-0.000486242
0.00130973
0.00299164
0.00446098
0.00555248
0.00617359
0.00616302
0.00604198
0.000954476
0.000612806
0.000343223
0.000111888
-0.000149441
-0.000544736
-0.00117472
-0.00209423
-0.00328102
-0.00465561
-0.00611629
-0.00758423
-0.00900391
-0.0103353
-0.0115556
-0.0126452
-0.0135877
-0.0143677
-0.0149727
-0.0153948
-0.0156249
-0.0156568
-0.0154849
-0.0151029
-0.014511
-0.0137127
-0.0127139
-0.0115228
-0.0101503
-0.00861166
-0.00692708
-0.00512111
-0.0032135
-0.00121453
0.000846091
0.002862
0.00457365
0.00569503
0.00609211
0.00586543
0.00159263
0.00120787
0.000826641
0.000441116
-6.99561e-05
-0.000813478
-0.00184759
-0.00315599
-0.00466184
-0.00626068
-0.00786386
-0.00941163
-0.0108608
-0.0121847
-0.0133686
-0.014402
-0.015279
-0.0159935
-0.0165404
-0.0169152
-0.0171133
-0.0171315
-0.0169668
-0.0166178
-0.0160854
-0.0153731
-0.0144857
-0.0134293
-0.0122097
-0.0108315
-0.00929781
-0.00760662
-0.00574565
-0.00369144
-0.00143886
0.000924054
0.0031452
0.00486859
0.00582087
0.00550156
0.00216421
0.00170183
0.00120431
0.000629945
-0.000181089
-0.00130322
-0.00272218
-0.00436368
-0.00611083
-0.00786295
-0.00955112
-0.0111308
-0.0125727
-0.0138633
-0.0149972
-0.0159726
-0.01679
-0.0174487
-0.0179477
-0.0182855
-0.0184602
-0.0184706
-0.0183152
-0.0179946
-0.0175105
-0.0168663
-0.0160665
-0.0151158
-0.0140173
-0.0127706
-0.0113688
-0.00979611
-0.00802421
-0.00601124
-0.00371711
-0.00117395
0.00140665
0.00365886
0.00510507
0.00520883
0.00249199
0.0019612
0.00133757
0.000554068
-0.000562536
-0.0020323
-0.00376896
-0.00565301
-0.00756204
-0.0094044
-0.0111294
-0.0127059
-0.0141185
-0.0153646
-0.0164463
-0.0173681
-0.0181342
-0.0187473
-0.0192089
-0.0195194
-0.0196785
-0.019686
-0.0195416
-0.0192462
-0.0188018
-0.0182117
-0.01748
-0.0166109
-0.0156067
-0.0144654
-0.013177
-0.0117203
-0.0100604
-0.00814682
-0.00591503
-0.00333933
-0.00057984
0.00200593
0.00398618
0.00504992
0.00246472
0.00187975
0.0011359
0.000153798
-0.00123459
-0.00297658
-0.00494155
-0.00697675
-0.00897604
-0.0108545
-0.0125785
-0.0141278
-0.0154991
-0.0166972
-0.0177295
-0.0186044
-0.0193283
-0.0199058
-0.0203398
-0.0206315
-0.0207816
-0.0207904
-0.0206581
-0.0203856
-0.019975
-0.0194292
-0.0187518
-0.0179465
-0.0170159
-0.0159582
-0.0147643
-0.0134137
-0.011872
-0.0100886
-0.00799147
-0.00551014
-0.00272511
-9.96263e-06
0.00233589
0.00395322
0.00205347
0.00142597
0.000578728
-0.000568568
-0.00215861
-0.00408777
-0.006183
-0.00829765
-0.0103247
-0.012197
-0.0138924
-0.0153998
-0.016724
-0.0178747
-0.0188627
-0.019698
-0.0203883
-0.0209388
-0.0213529
-0.0216325
-0.0217785
-0.0217913
-0.0216716
-0.0214204
-0.0210393
-0.0205308
-0.0198981
-0.0191447
-0.0182734
-0.0172839
-0.0161698
-0.0149146
-0.0134879
-0.011844
-0.00991681
-0.00761756
-0.00493141
-0.00224072
0.000142966
0.00184106
0.00128421
0.000633765
-0.000286052
-0.00155627
-0.00326898
-0.00529917
-0.00744332
-0.0095763
-0.0115856
-0.0134221
-0.0150712
-0.0165287
-0.0178045
-0.0189109
-0.0198601
-0.0206626
-0.0213262
-0.0218564
-0.0222564
-0.0225284
-0.0226733
-0.0226919
-0.0225849
-0.0223533
-0.0219983
-0.0215221
-0.0209275
-0.0202177
-0.0193959
-0.0184638
-0.0174183
-0.0162484
-0.0149305
-0.0134259
-0.0116785
-0.00960477
-0.00714008
-0.00456248
-0.00235603
-0.000807547
0.000237978
-0.000412958
-0.00137127
-0.00271494
-0.00448776
-0.0065398
-0.00867612
-0.0107805
-0.0127413
-0.0145237
-0.016117
-0.0175219
-0.0187508
-0.0198168
-0.0207325
-0.0215078
-0.0221502
-0.0226648
-0.0230547
-0.0233219
-0.0234677
-0.0234927
-0.0233979
-0.023184
-0.0228523
-0.0224046
-0.0218432
-0.0211713
-0.0203926
-0.0195102
-0.0185248
-0.0174313
-0.016214
-0.0148429
-0.0132717
-0.0114343
-0.00925845
-0.00686965
-0.00493098
-0.00362202
-0.000973273
-0.00161017
-0.0025789
-0.00394605
-0.00572262
-0.00774301
-0.00983966
-0.0118839
-0.0137784
-0.0154974
-0.0170316
-0.018385
-0.0195703
-0.0206003
-0.0214871
-0.0222398
-0.022865
-0.0233674
-0.0237498
-0.0240141
-0.0241615
-0.0241929
-0.0241092
-0.0239112
-0.0236002
-0.0231775
-0.0226455
-0.0220071
-0.0212663
-0.0204278
-0.0194956
-0.0184698
-0.017343
-0.0160948
-0.0146904
-0.0130806
-0.0111974
-0.00907451
-0.00739658
-0.00632178
-0.00223883
-0.00284768
-0.00380644
-0.00515915
-0.00690032
-0.00886034
-0.0108948
-0.0128639
-0.0146859
-0.0163394
-0.0178162
-0.0191215
-0.0202675
-0.0212661
-0.0221282
-0.0228619
-0.0234731
-0.0239657
-0.0243423
-0.0246047
-0.024754
-0.0247912
-0.0247173
-0.0245333
-0.0242402
-0.0238394
-0.023333
-0.0227241
-0.0220168
-0.0212172
-0.0203317
-0.0193654
-0.0183179
-0.0171785
-0.0159223
-0.0145103
-0.012893
-0.0110977
-0.00965908
-0.00875445
-0.00345413
-0.00402801
-0.00495984
-0.00628013
-0.00796545
-0.00985216
-0.0118129
-0.0137037
-0.0154547
-0.0170462
-0.0184705
-0.0197329
-0.0208447
-0.0218164
-0.0226578
-0.0233758
-0.0239755
-0.0244603
-0.0248324
-0.0250934
-0.0252445
-0.0252867
-0.0252211
-0.0250487
-0.0247706
-0.0243883
-0.0239039
-0.0233203
-0.0226422
-0.0218762
-0.021031
-0.0201158
-0.0191366
-0.0180908
-0.0169612
-0.0157157
-0.0143256
-0.0128333
-0.0116177
-0.0108498
-0.00454108
-0.00507154
-0.00596646
-0.00724748
-0.00887311
-0.0106867
-0.0125733
-0.0143907
-0.0160775
-0.0176141
-0.0189931
-0.0202192
-0.0213024
-0.022252
-0.0230765
-0.0237819
-0.0243725
-0.0248511
-0.0252198
-0.0254798
-0.0256325
-0.0256787
-0.0256196
-0.0254563
-0.0251902
-0.0248227
-0.0243561
-0.0237933
-0.0231393
-0.0224014
-0.0215897
-0.0207166
-0.0197935
-0.0188248
-0.0178004
-0.016695
-0.0154973
-0.0142587
-0.0132379
-0.0125758
-0.00543585
-0.00592889
-0.00678065
-0.00802009
-0.00959005
-0.0113409
-0.0131615
-0.0149156
-0.0165483
-0.0180395
-0.0193818
-0.0205791
-0.0216398
-0.0225724
-0.0233841
-0.02408
-0.0246639
-0.0251381
-0.0255044
-0.0257639
-0.0259177
-0.0259668
-0.0259124
-0.0257556
-0.0254981
-0.0251414
-0.0246879
-0.0241409
-0.0235054
-0.0227892
-0.0220035
-0.0211631
-0.0202835
-0.0193751
-0.0184348
-0.0174456
-0.0164048
-0.0153564
-0.0145012
-0.0139286
-0.00611105
-0.00655679
-0.00737174
-0.00857576
-0.0100982
-0.0117997
-0.0135674
-0.0152712
-0.016862
-0.018319
-0.0196342
-0.0208106
-0.0218555
-0.0227764
-0.0235795
-0.0242694
-0.0248492
-0.025321
-0.0256861
-0.0259455
-0.0261002
-0.0261512
-0.0260995
-0.0259466
-0.025694
-0.0253437
-0.0248982
-0.0243611
-0.0237376
-0.0230359
-0.0222681
-0.0214504
-0.0206016
-0.0197369
-0.0188603
-0.0179632
-0.0170464
-0.0161449
-0.0154187
-0.0149156
-0.00653772
-0.00694384
-0.00773395
-0.00890878
-0.0103904
-0.0120571
-0.0137852
-0.0154526
-0.0170148
-0.0184492
-0.0197473
-0.0209112
-0.0219473
-0.0228622
-0.0236614
-0.024349
-0.0249278
-0.0253993
-0.0257647
-0.0260248
-0.0261803
-0.0262322
-0.0261814
-0.0260295
-0.0257781
-0.0254295
-0.0249864
-0.0244528
-0.023834
-0.0231388
-0.0223796
-0.0215741
-0.0207432
-0.0199063
-0.0190737
-0.0182448
-0.0174225
-0.0166293
-0.0160011
-0.0155521
-0.00669665
-0.00708686
-0.00786873
-0.00902386
-0.0104716
-0.0121118
-0.0138115
-0.0154574
-0.0170038
-0.0184271
-0.0197181
-0.0208782
-0.0219128
-0.0228277
-0.0236282
-0.0243178
-0.0248988
-0.0253727
-0.0257403
-0.026002
-0.0261585
-0.0262104
-0.0261588
-0.0260051
-0.0257509
-0.0253989
-0.0249522
-0.0244149
-0.0237931
-0.0230956
-0.022335
-0.0215303
-0.0207045
-0.0198801
-0.0190725
-0.0182893
-0.0175379
-0.0168269
-0.0162704
-0.0158533
-0.00662232
-0.00700292
-0.0077832
-0.00892876
-0.0103513
-0.0119679
-0.0136534
-0.0152885
-0.0168289
-0.0182507
-0.0195438
-0.0207084
-0.0217488
-0.0226705
-0.0234779
-0.0241742
-0.0247615
-0.0252408
-0.0256127
-0.0258775
-0.0260354
-0.0260869
-0.0260328
-0.0258745
-0.0256137
-0.0252531
-0.0247961
-0.0242473
-0.0236133
-0.0229037
-0.0221317
-0.0213168
-0.0204829
-0.0196554
-0.0188543
-0.018095
-0.0173926
-0.0167394
-0.016246
-0.0158327
-0.00635766
-0.00672705
-0.00750491
-0.00864596
-0.0100482
-0.0116364
-0.0133143
-0.0149466
-0.0164889
-0.0179175
-0.019221
-0.0203982
-0.0214523
-0.0223875
-0.0232079
-0.0239163
-0.0245144
-0.0250029
-0.025382
-0.0256516
-0.0258117
-0.0258625
-0.0258046
-0.0256391
-0.0253678
-0.0249933
-0.0245194
-0.023951
-0.0232954
-0.0225629
-0.021768
-0.0209308
-0.020076
-0.0192306
-0.0184189
-0.0176644
-0.0169915
-0.0163686
-0.0159438
-0.0155021
-0.00594977
-0.00630555
-0.00707376
-0.00820409
-0.00958661
-0.01114
-0.0127998
-0.0144329
-0.0159828
-0.0174246
-0.018746
-0.0199435
-0.0210189
-0.0219752
-0.0228156
-0.0235422
-0.0241564
-0.0246584
-0.025048
-0.0253248
-0.0254883
-0.0255385
-0.0254756
-0.0253004
-0.0250147
-0.0246212
-0.0241236
-0.0235274
-0.0228405
-0.0220741
-0.021244
-0.0203713
-0.0194824
-0.018605
-0.0177676
-0.0170039
-0.0163444
-0.015717
-0.0153453
-0.0148808
-0.00546081
-0.00579642
-0.00653793
-0.00763727
-0.00898782
-0.010503
-0.0121258
-0.0137529
-0.0153105
-0.0167692
-0.0181141
-0.0193392
-0.0204439
-0.0214293
-0.0222974
-0.0230494
-0.0236858
-0.0242064
-0.0246106
-0.0248976
-0.0250664
-0.0251164
-0.0250476
-0.0248606
-0.0245569
-0.0241389
-0.0236108
-0.0229783
-0.0222502
-0.0214386
-0.0205608
-0.0196395
-0.0187023
-0.0177788
-0.0169022
-0.016117
-0.0154594
-0.0147983
-0.0144762
-0.0139861
-0.00496737
-0.00526676
-0.0059502
-0.00698586
-0.00827642
-0.00973788
-0.0113094
-0.0129145
-0.014473
-0.015948
-0.0173204
-0.0185798
-0.0197218
-0.0207452
-0.0216495
-0.0224348
-0.0231007
-0.0236461
-0.0240699
-0.0243707
-0.0245471
-0.0245981
-0.0245231
-0.0243224
-0.0239973
-0.02355
-0.0229846
-0.0223074
-0.0215279
-0.0206596
-0.0197216
-0.0187381
-0.0177387
-0.0167546
-0.0158241
-0.0150008
-0.0143205
-0.0136324
-0.0133772
-0.0128386
-0.00454807
-0.0047784
-0.00535733
-0.00628834
-0.00748337
-0.00886114
-0.0103627
-0.0119246
-0.0134711
-0.0149581
-0.0163596
-0.017659
-0.0188468
-0.0199173
-0.0208676
-0.0216955
-0.0223991
-0.0229766
-0.023426
-0.0237452
-0.0239324
-0.023986
-0.0239051
-0.0236895
-0.02334
-0.0228589
-0.02225
-0.0215202
-0.0206796
-0.0197434
-0.0187326
-0.0176734
-0.0165979
-0.0155385
-0.014539
-0.013661
-0.0129418
-0.012214
-0.012061
-0.0114297
-0.00425773
-0.00436763
-0.00479151
-0.0055782
-0.00664057
-0.00789602
-0.00929645
-0.0107892
-0.0123063
-0.0137973
-0.0152272
-0.0165714
-0.0178129
-0.0189407
-0.0199475
-0.0208283
-0.0215794
-0.0221974
-0.0226794
-0.0230227
-0.0232248
-0.0232837
-0.0231979
-0.0229668
-0.022591
-0.0220722
-0.0214146
-0.020625
-0.0197148
-0.0187003
-0.0176047
-0.0164568
-0.0152908
-0.0141418
-0.0130582
-0.0121077
-0.0113294
-0.0105367
-0.0105232
-0.00971704
-0.00408208
-0.00401507
-0.0042705
-0.0048854
-0.00577472
-0.00686474
-0.00812462
-0.00951725
-0.0109827
-0.0124656
-0.0139208
-0.0153131
-0.0166162
-0.0178115
-0.0188862
-0.0198315
-0.0206408
-0.021309
-0.021832
-0.0222062
-0.0224284
-0.0224962
-0.0224078
-0.0221617
-0.0217585
-0.0211997
-0.0204894
-0.0196347
-0.0186476
-0.0175462
-0.0163556
-0.0151067
-0.0138369
-0.0125835
-0.0114007
-0.0103597
-0.00950215
-0.00863261
-0.00872909
-0.00761548
-0.00387252
-0.00367534
-0.00380952
-0.00423287
-0.00490449
-0.00578403
-0.00686286
-0.00812168
-0.00951008
-0.0109692
-0.0124435
-0.0138852
-0.0152567
-0.0165298
-0.0176843
-0.0187063
-0.0195855
-0.0203147
-0.0208879
-0.0213009
-0.0215498
-0.0216314
-0.0215437
-0.0212849
-0.0208551
-0.0202558
-0.019491
-0.0185682
-0.0175
-0.0163055
-0.0150119
-0.0136519
-0.0122656
-0.0108936
-0.00959591
-0.00844473
-0.00748825
-0.0065327
-0.0066408
-0.00505483
-0.00356654
-0.00338121
-0.00342449
-0.003631
-0.00404266
-0.00466844
-0.00552731
-0.0066194
-0.00790507
-0.00932324
-0.010808
-0.0122984
-0.0137432
-0.015103
-0.0163486
-0.0174593
-0.0184206
-0.0192219
-0.0198558
-0.0203165
-0.0205995
-0.0207013
-0.0206194
-0.0203522
-0.0198988
-0.0192613
-0.0184436
-0.0174533
-0.0163035
-0.0150139
-0.0136127
-0.012134
-0.0106205
-0.00911573
-0.00768656
-0.00640357
-0.00532269
-0.00424903
-0.00424841
-0.00204659
-0.00330408
-0.00318053
-0.00311971
-0.00308593
-0.00320059
-0.00353244
-0.00413649
-0.00503391
-0.00619512
-0.00755669
-0.00904261
-0.0105783
-0.0120987
-0.0135515
-0.0148973
-0.0161076
-0.017162
-0.0180466
-0.0187513
-0.0192691
-0.019595
-0.019725
-0.0196564
-0.0193873
-0.0189163
-0.0182465
-0.0173818
-0.0163295
-0.0151028
-0.0137211
-0.0122127
-0.0106113
-0.00896159
-0.00730922
-0.00572804
-0.00428347
-0.00303655
-0.00177818
-0.00153065
0.00129881
-0.00311134
-0.00305133
-0.0028771
-0.00259678
-0.00238596
-0.00238976
-0.0027115
-0.00339602
-0.00442029
-0.00571556
-0.00719521
-0.00877179
-0.0103668
-0.0119151
-0.0133665
-0.0146837
-0.01584
-0.016817
-0.0176019
-0.018186
-0.0185636
-0.0187307
-0.0186842
-0.0184235
-0.0179451
-0.0172536
-0.0163532
-0.0152506
-0.0139581
-0.0124935
-0.0108834
-0.00915887
-0.00736458
-0.00554535
-0.00377909
-0.00211988
-0.00063505
0.000907941
0.00152879
0.00496757
-0.00291555
-0.00293429
-0.0026505
-0.00213269
-0.00158598
-0.00124992
-0.00128217
-0.00175032
-0.00263649
-0.00386502
-0.00533652
-0.00695071
-0.00861699
-0.010259
-0.011816
-0.0132421
-0.0145041
-0.0155788
-0.0164504
-0.0171085
-0.0175462
-0.0177592
-0.0177445
-0.0175012
-0.0170325
-0.0163354
-0.015416
-0.014281
-0.0129404
-0.0114079
-0.00970636
-0.00786009
-0.00591003
-0.00389223
-0.00188122
9.19245e-05
0.00195341
0.00395855
0.0051446
0.00934918
-0.00265996
-0.00273783
-0.00238061
-0.00164142
-0.00077627
-0.000124583
0.000110007
-0.000160674
-0.000921991
-0.00209138
-0.00355811
-0.00520971
-0.0069438
-0.00867403
-0.0103311
-0.0118618
-0.013227
-0.014399
-0.0153592
-0.0160952
-0.0165991
-0.0168663
-0.0168946
-0.016683
-0.0162334
-0.0155466
-0.0146265
-0.0134798
-0.0121118
-0.0105293
-0.00874895
-0.00678181
-0.00465829
-0.00239032
-3.32186e-05
0.00243152
0.00493634
0.00777349
0.0100394
0.0158308
-0.00234649
-0.00243171
-0.00199813
-0.00107855
5.34103e-05
0.000951352
0.0013956
0.00128153
0.000619108
-0.000503519
-0.00196653
-0.00364996
-0.0054429
-0.00725052
-0.0089964
-0.0106217
-0.0120823
-0.0133462
-0.0143921
-0.0152059
-0.0157789
-0.0161055
-0.0161838
-0.0160132
-0.0155949
-0.014929
-0.0140193
-0.0128749
-0.0114944
-0.00987813
-0.00803194
-0.00594534
-0.00362775
-0.00104202
0.00180188
0.00503267
0.00862747
0.0130721
0.0177774
0.0272586
-0.00212465
-0.00216962
-0.00158252
-0.000465872
0.000838143
0.00192938
0.0025032
0.00248801
0.0018904
0.000795806
-0.000674282
-0.00239235
-0.0042403
-0.00611628
-0.00793773
-0.00964199
-0.0111819
-0.0125224
-0.0136404
-0.0145209
-0.0151542
-0.0155344
-0.0156592
-0.0155286
-0.0151441
-0.0145068
-0.0136176
-0.0124673
-0.0110717
-0.00942858
-0.00752615
-0.00532729
-0.00281076
0.000140157
0.0035968
0.00790942
0.0131898
0.0206323
0.0303235
0.0467988
-0.00306733
-0.00250441
-0.00143695
1.58503e-06
0.00150518
0.00270515
0.00335466
0.00338728
0.00282224
0.00174835
0.000283051
-0.00144932
-0.00332985
-0.00525366
-0.00713309
-0.00890061
-0.0105047
-0.0119079
-0.0130848
-0.0140191
-0.0146999
-0.0151227
-0.0152841
-0.0151842
-0.0148235
-0.0142034
-0.0133241
-0.0121851
-0.0107875
-0.00911309
-0.0071599
-0.00488285
-0.00220989
0.00102418
0.00509346
0.0106235
0.0182755
0.030535
0.0483069
0.0749056
-0.00517693
-0.00163954
-3.06094e-05
0.00137039
0.00274646
0.00384313
0.00441973
0.00438289
0.00375886
0.00264369
0.00115177
-0.000605998
-0.00251984
-0.00448721
-0.00641953
-0.00824402
-0.00990503
-0.0113636
-0.0125924
-0.0135727
-0.014294
-0.0147502
-0.0149401
-0.0148626
-0.0145195
-0.0139103
-0.0130365
-0.0118954
-0.0104822
-0.00879912
-0.00681702
-0.00456405
-0.00175435
0.00149094
0.00609096
0.012488
0.0233917
0.0414206
0.0690305
0.104662
)
;

boundaryField
{
    movingWall
    {
        type            zeroGradient;
    }
    fixedWalls
    {
        type            zeroGradient;
    }
    frontAndBack
    {
        type            empty;
    }
}


// ************************************************************************* //
