/*--------------------------------*- C++ -*----------------------------------*\
  =========                 |
  \\      /  F ield         | OpenFOAM: The Open Source CFD Toolbox
   \\    /   O peration     | Website:  https://openfoam.org
    \\  /    A nd           | Version:  12
     \\/     M anipulation  |
\*---------------------------------------------------------------------------*/
FoamFile
{
    format      ascii;
    class       surfaceScalarField;
    location    "8";
    object      phi;
}
// * * * * * * * * * * * * * * * * * * * * * * * * * * * * * * * * * * * * * //

dimensions      [0 3 -1 0 0 0 0];

internalField   nonuniform List<scalar> 
3120
(
9.48645e-08
-9.48652e-08
2.33294e-07
-1.3843e-07
3.35099e-07
-1.01804e-07
3.692e-07
-3.41015e-08
3.58185e-07
1.10151e-08
3.37958e-07
2.02265e-08
3.30572e-07
7.38659e-09
3.26154e-07
4.41746e-09
3.03556e-07
2.2598e-08
2.4622e-07
5.73362e-08
1.33168e-07
1.13052e-07
-8.36157e-08
2.16784e-07
-4.24518e-07
3.40903e-07
-9.22114e-07
4.97596e-07
-1.51377e-06
5.91659e-07
-2.09459e-06
5.80812e-07
-2.62061e-06
5.26024e-07
-3.0718e-06
4.51192e-07
-3.44603e-06
3.74234e-07
-3.74411e-06
2.9807e-07
-3.96817e-06
2.24069e-07
-4.11962e-06
1.51445e-07
-4.1998e-06
8.01813e-08
-4.20575e-06
5.94828e-09
-4.13547e-06
-7.028e-08
-3.99067e-06
-1.44803e-07
-3.75717e-06
-2.33495e-07
-3.43575e-06
-3.21417e-07
-3.01846e-06
-4.17295e-07
-2.50678e-06
-5.1168e-07
-1.90215e-06
-6.04628e-07
-1.22838e-06
-6.73769e-07
-5.39067e-07
-6.89315e-07
8.88265e-08
-6.27894e-07
5.84211e-07
-4.95385e-07
7.88475e-07
-2.04263e-07
6.74643e-07
1.13832e-07
4.37902e-07
2.36741e-07
1.84775e-07
2.53126e-07
1.84775e-07
1.71226e-07
-2.66092e-07
3.57588e-07
-3.24791e-07
4.72114e-07
-2.16331e-07
5.0418e-07
-6.61676e-08
4.70811e-07
4.43845e-08
3.96181e-07
9.48557e-08
2.90929e-07
1.12639e-07
1.30907e-07
1.64439e-07
-1.27678e-07
2.81183e-07
-5.30211e-07
4.59869e-07
-1.10352e-06
6.86358e-07
-1.81019e-06
9.2346e-07
-2.55397e-06
1.08467e-06
-3.19828e-06
1.14191e-06
-3.70402e-06
1.0974e-06
-4.13478e-06
1.01157e-06
-4.49962e-06
8.90863e-07
-4.80331e-06
7.54881e-07
-5.0443e-06
6.15226e-07
-5.2244e-06
4.78167e-07
-5.34381e-06
3.43478e-07
-5.40706e-06
2.14694e-07
-5.41135e-06
8.4473e-08
-5.35802e-06
-4.73803e-08
-5.24602e-06
-1.82276e-07
-5.06608e-06
-3.24746e-07
-4.81924e-06
-4.80333e-07
-4.49303e-06
-6.47633e-07
-4.07869e-06
-8.31632e-07
-3.57323e-06
-1.01714e-06
-2.98215e-06
-1.19571e-06
-2.31318e-06
-1.34274e-06
-1.5931e-06
-1.4094e-06
-8.6415e-07
-1.35684e-06
-2.3847e-07
-1.12106e-06
2.26873e-07
-6.69607e-07
3.81779e-07
-4.10742e-08
3.16221e-07
3.023e-07
1.48281e-07
4.21067e-07
3.33056e-07
2.07455e-07
-4.73547e-07
3.52288e-07
-4.69624e-07
4.02291e-07
-2.66333e-07
3.73543e-07
-3.74197e-08
2.77092e-07
1.40836e-07
1.06151e-07
2.65797e-07
-1.77681e-07
3.96471e-07
-6.09088e-07
5.95847e-07
-1.20243e-06
8.74521e-07
-1.92015e-06
1.17759e-06
-2.65976e-06
1.42597e-06
-3.30552e-06
1.56922e-06
-3.83612e-06
1.61527e-06
-4.26092e-06
1.56671e-06
-4.61051e-06
1.447e-06
-4.89238e-06
1.29344e-06
-5.12128e-06
1.11977e-06
-5.3051e-06
9.38695e-07
-5.44836e-06
7.58488e-07
-5.55237e-06
5.82184e-07
-5.62025e-06
4.11353e-07
-5.64795e-06
2.42392e-07
-5.63322e-06
6.97482e-08
-5.5791e-06
-1.01504e-07
-5.48338e-06
-2.77992e-07
-5.34216e-06
-4.65967e-07
-5.15298e-06
-6.69519e-07
-4.91014e-06
-8.90471e-07
-4.60884e-06
-1.13293e-06
-4.23365e-06
-1.39233e-06
-3.773e-06
-1.65636e-06
-3.21772e-06
-1.89801e-06
-2.5724e-06
-2.05472e-06
-1.86416e-06
-2.06508e-06
-1.14316e-06
-1.84207e-06
-4.94194e-07
-1.31857e-06
-7.74676e-08
-4.578e-07
3.42006e-08
1.90632e-07
2.375e-08
4.31517e-07
3.56806e-07
1.73121e-07
-6.46668e-07
2.29865e-07
-5.26368e-07
1.84923e-07
-2.21392e-07
5.99244e-08
8.7579e-08
-1.53926e-07
3.54686e-07
-4.92984e-07
6.04856e-07
-9.85559e-07
8.89045e-07
-1.61885e-06
1.22914e-06
-2.32556e-06
1.58122e-06
-3.01011e-06
1.86214e-06
-3.59214e-06
2.008e-06
-4.05274e-06
2.02982e-06
-4.40554e-06
1.96808e-06
-4.67767e-06
1.83884e-06
-4.89752e-06
1.66684e-06
-5.07279e-06
1.46871e-06
-5.2155e-06
1.26248e-06
-5.33332e-06
1.05651e-06
-5.42792e-06
8.53096e-07
-5.49472e-06
6.48974e-07
-5.53421e-06
4.50852e-07
-5.54396e-06
2.52135e-07
-5.52506e-06
5.08541e-08
-5.47928e-06
-1.47292e-07
-5.40416e-06
-3.5311e-07
-5.29708e-06
-5.73045e-07
-5.15618e-06
-8.10413e-07
-4.97761e-06
-1.06904e-06
-4.76045e-06
-1.3501e-06
-4.49949e-06
-1.65328e-06
-4.18889e-06
-1.96697e-06
-3.81158e-06
-2.27532e-06
-3.32491e-06
-2.54139e-06
-2.7105e-06
-2.67949e-06
-1.97974e-06
-2.57283e-06
-1.19099e-06
-2.10732e-06
-4.6105e-07
-1.18774e-06
-1.33849e-07
-1.36569e-07
-2.80166e-08
3.25684e-07
3.28789e-07
8.12626e-08
-7.27931e-07
2.32638e-08
-4.68369e-07
-1.29674e-07
-6.84542e-08
-3.68675e-07
3.2658e-07
-7.18462e-07
7.04473e-07
-1.20111e-06
1.08751e-06
-1.80686e-06
1.49479e-06
-2.47322e-06
1.89551e-06
-3.10594e-06
2.21394e-06
-3.62696e-06
2.38316e-06
-4.02622e-06
2.40726e-06
-4.33311e-06
2.3367e-06
-4.56386e-06
2.19884e-06
-4.74058e-06
2.01556e-06
-4.88097e-06
1.80723e-06
-4.99601e-06
1.58374e-06
-5.08684e-06
1.35331e-06
-5.15127e-06
1.12094e-06
-5.18998e-06
8.918e-07
-5.20938e-06
6.68381e-07
-5.21103e-06
4.52494e-07
-5.19762e-06
2.38735e-07
-5.17056e-06
2.37939e-08
-5.12693e-06
-1.90928e-07
-5.06541e-06
-4.14627e-07
-4.9865e-06
-6.51958e-07
-4.8896e-06
-9.07314e-07
-4.77324e-06
-1.1854e-06
-4.63388e-06
-1.48946e-06
-4.46675e-06
-1.82042e-06
-4.26201e-06
-2.1717e-06
-4.0115e-06
-2.52583e-06
-3.69631e-06
-2.85658e-06
-3.27057e-06
-3.10524e-06
-2.66981e-06
-3.17359e-06
-1.88219e-06
-2.89495e-06
-9.36907e-07
-2.13302e-06
-2.22778e-07
-8.50699e-07
-1.48478e-08
1.17754e-07
3.13942e-07
-5.29113e-08
-6.75019e-07
-2.25562e-07
-2.95719e-07
-4.80832e-07
1.86816e-07
-8.28391e-07
6.74139e-07
-1.28536e-06
1.16144e-06
-1.84433e-06
1.64648e-06
-2.4565e-06
2.10695e-06
-3.04158e-06
2.48058e-06
-3.52442e-06
2.69679e-06
-3.88399e-06
2.74273e-06
-4.15256e-06
2.67583e-06
-4.35261e-06
2.53675e-06
-4.49915e-06
2.34538e-06
-4.60677e-06
2.12317e-06
-4.68123e-06
1.88169e-06
-4.72938e-06
1.63189e-06
-4.75696e-06
1.38089e-06
-4.77052e-06
1.1345e-06
-4.77434e-06
8.95625e-07
-4.76948e-06
6.63516e-07
-4.75408e-06
4.37092e-07
-4.72886e-06
2.13524e-07
-4.69509e-06
-9.97565e-09
-4.65032e-06
-2.35704e-07
-4.59579e-06
-4.6916e-07
-4.53277e-06
-7.14973e-07
-4.46219e-06
-9.77893e-07
-4.38472e-06
-1.26288e-06
-4.29989e-06
-1.57428e-06
-4.20551e-06
-1.9148e-06
-4.09443e-06
-2.28279e-06
-3.95157e-06
-2.66869e-06
-3.7594e-06
-3.04875e-06
-3.48822e-06
-3.37641e-06
-3.08055e-06
-3.58126e-06
-2.44416e-06
-3.53134e-06
-1.53276e-06
-3.04441e-06
-5.00071e-07
-1.88339e-06
-3.41686e-08
-3.48148e-07
2.79773e-07
-1.79762e-07
-4.95258e-07
-4.66982e-07
-8.49783e-09
-8.13078e-07
5.32911e-07
-1.24582e-06
1.10688e-06
-1.76049e-06
1.67611e-06
-2.32116e-06
2.20715e-06
-2.86536e-06
2.65116e-06
-3.3229e-06
2.93812e-06
-3.65837e-06
3.03226e-06
-3.89812e-06
2.98248e-06
-4.07074e-06
2.84845e-06
-4.18871e-06
2.65472e-06
-4.26607e-06
2.42275e-06
-4.31235e-06
2.16945e-06
-4.33602e-06
1.90537e-06
-4.34456e-06
1.64043e-06
-4.34341e-06
1.37974e-06
-4.33555e-06
1.12665e-06
-4.32157e-06
8.81645e-07
-4.30168e-06
6.43619e-07
-4.27557e-06
4.10983e-07
-4.24323e-06
1.81188e-07
-4.20499e-06
-4.82184e-08
-4.16018e-06
-2.80516e-07
-4.10975e-06
-5.19593e-07
-4.05511e-06
-7.69606e-07
-3.99797e-06
-1.03503e-06
-3.94021e-06
-1.32064e-06
-3.8833e-06
-1.63119e-06
-3.82743e-06
-1.97067e-06
-3.76951e-06
-2.34071e-06
-3.70072e-06
-2.73747e-06
-3.60312e-06
-3.14635e-06
-3.44444e-06
-3.5351e-06
-3.18175e-06
-3.84395e-06
-2.74057e-06
-3.97252e-06
-2.03003e-06
-3.75495e-06
-9.60344e-07
-2.95307e-06
-1.17993e-07
-1.1905e-06
1.6178e-07
-2.92961e-07
-2.02297e-07
-6.59268e-07
3.5781e-07
-1.08341e-06
9.57057e-07
-1.56494e-06
1.5884e-06
-2.0842e-06
2.19537e-06
-2.59689e-06
2.71984e-06
-3.04264e-06
3.09691e-06
-3.37248e-06
3.26797e-06
-3.59738e-06
3.25716e-06
-3.75282e-06
3.13791e-06
-3.8541e-06
2.94973e-06
-3.91346e-06
2.71408e-06
-3.94309e-06
2.45237e-06
-3.95185e-06
2.17821e-06
-3.94783e-06
1.90135e-06
-3.93631e-06
1.62891e-06
-3.92044e-06
1.36386e-06
-3.90135e-06
1.10756e-06
-3.87904e-06
8.59335e-07
-3.85328e-06
6.17859e-07
-3.82359e-06
3.8129e-07
-3.78958e-06
1.4718e-07
-3.75095e-06
-8.68511e-08
-3.70765e-06
-3.23809e-07
-3.66038e-06
-5.66863e-07
-3.61053e-06
-8.19461e-07
-3.56012e-06
-1.08544e-06
-3.51169e-06
-1.36906e-06
-3.46785e-06
-1.67504e-06
-3.43031e-06
-2.0082e-06
-3.39852e-06
-2.3725e-06
-3.36729e-06
-2.7687e-06
-3.32338e-06
-3.19027e-06
-3.24094e-06
-3.61753e-06
-3.07794e-06
-4.00695e-06
-2.77672e-06
-4.27374e-06
-2.26131e-06
-4.27036e-06
-1.43075e-06
-3.78363e-06
-3.39032e-07
-2.28222e-06
-1.77252e-07
-3.69007e-07
1.6671e-07
-8.02494e-07
7.91296e-07
-1.26627e-06
1.42084e-06
-1.75623e-06
2.07836e-06
-2.24666e-06
2.6858e-06
-2.69259e-06
3.16577e-06
-3.03316e-06
3.43748e-06
-3.2616e-06
3.4964e-06
-3.41218e-06
3.40775e-06
-3.50772e-06
3.23345e-06
-3.5601e-06
3.00211e-06
-3.58189e-06
2.73588e-06
-3.58347e-06
2.45395e-06
-3.57276e-06
2.1675e-06
-3.55586e-06
1.88445e-06
-3.53603e-06
1.60909e-06
-3.5149e-06
1.34273e-06
-3.49273e-06
1.08539e-06
-3.46915e-06
8.35763e-07
-3.44348e-06
5.92184e-07
-3.41485e-06
3.52662e-07
-3.38256e-06
1.1489e-07
-3.34597e-06
-1.23439e-07
-3.30503e-06
-3.64753e-07
-3.2602e-06
-6.11694e-07
-3.21267e-06
-8.66991e-07
-3.16442e-06
-1.13369e-06
-3.1182e-06
-1.41529e-06
-3.07726e-06
-1.71598e-06
-3.0447e-06
-2.04076e-06
-3.02212e-06
-2.39508e-06
-3.00736e-06
-2.78346e-06
-2.99124e-06
-3.20638e-06
-2.95372e-06
-3.65505e-06
-2.85916e-06
-4.10151e-06
-2.65635e-06
-4.47656e-06
-2.2971e-06
-4.62961e-06
-1.69815e-06
-4.38258e-06
-6.34262e-07
-3.34611e-06
-8.11513e-07
-4.13532e-07
5.80242e-07
-8.81247e-07
1.25901e-06
-1.35648e-06
1.89607e-06
-1.83035e-06
2.55224e-06
-2.27737e-06
3.13281e-06
-2.64102e-06
3.52943e-06
-2.88946e-06
3.68592e-06
-3.05127e-06
3.65822e-06
-3.15147e-06
3.50794e-06
-3.20676e-06
3.28874e-06
-3.22889e-06
3.02424e-06
-3.22962e-06
2.7366e-06
-3.21765e-06
2.44198e-06
-3.19936e-06
2.14921e-06
-3.1789e-06
1.86399e-06
-3.15818e-06
1.58837e-06
-3.13787e-06
1.32242e-06
-3.11765e-06
1.06517e-06
-3.09678e-06
8.14886e-07
-3.07424e-06
5.69642e-07
-3.04899e-06
3.27413e-07
-3.02018e-06
8.60786e-08
-2.98709e-06
-1.56527e-07
-2.94948e-06
-4.02363e-07
-2.90758e-06
-6.53593e-07
-2.86222e-06
-9.12353e-07
-2.81497e-06
-1.18094e-06
-2.76824e-06
-1.46201e-06
-2.72524e-06
-1.75898e-06
-2.6896e-06
-2.0764e-06
-2.66442e-06
-2.42026e-06
-2.65027e-06
-2.79761e-06
-2.64219e-06
-3.21446e-06
-2.6261e-06
-3.67114e-06
-2.57353e-06
-4.15407e-06
-2.43492e-06
-4.61518e-06
-2.1618e-06
-4.90273e-06
-1.69189e-06
-4.8525e-06
-9.04067e-07
-4.13392e-06
-1.71558e-06
-4.31042e-07
1.01128e-06
-9.03083e-07
1.73105e-06
-1.36612e-06
2.3591e-06
-1.80714e-06
2.99326e-06
-2.19677e-06
3.52245e-06
-2.47813e-06
3.81078e-06
-2.66589e-06
3.87368e-06
-2.78312e-06
3.77545e-06
-2.84977e-06
3.57459e-06
-2.88033e-06
3.3193e-06
-2.88609e-06
3.03e-06
-2.87743e-06
2.72794e-06
-2.86136e-06
2.42591e-06
-2.8427e-06
2.13056e-06
-2.82412e-06
1.8454e-06
-2.80657e-06
1.57083e-06
-2.79008e-06
1.30593e-06
-2.77395e-06
1.04904e-06
-2.75719e-06
7.98132e-07
-2.73873e-06
5.51184e-07
-2.71753e-06
3.06213e-07
-2.69275e-06
6.1294e-08
-2.66373e-06
-1.85543e-07
-2.6301e-06
-4.3599e-07
-2.59189e-06
-6.91808e-07
-2.54954e-06
-9.54706e-07
-2.5041e-06
-1.22638e-06
-2.45736e-06
-1.50875e-06
-2.41198e-06
-1.80435e-06
-2.37143e-06
-2.11695e-06
-2.33939e-06
-2.45231e-06
-2.31827e-06
-2.81873e-06
-2.30661e-06
-3.22613e-06
-2.29564e-06
-3.68211e-06
-2.26474e-06
-4.18497e-06
-2.17104e-06
-4.70887e-06
-1.94533e-06
-5.12844e-06
-1.56554e-06
-5.23228e-06
-9.54219e-07
-4.74525e-06
-2.6698e-06
-4.20855e-07
1.43214e-06
-8.75678e-07
2.18587e-06
-1.30909e-06
2.79251e-06
-1.70834e-06
3.39251e-06
-2.0325e-06
3.8466e-06
-2.25336e-06
4.03164e-06
-2.39979e-06
4.02011e-06
-2.48543e-06
3.86109e-06
-2.53092e-06
3.62009e-06
-2.54783e-06
3.3362e-06
-2.54663e-06
3.02881e-06
-2.53596e-06
2.71726e-06
-2.52126e-06
2.41122e-06
-2.50604e-06
2.11533e-06
-2.49184e-06
1.8312e-06
-2.47901e-06
1.558e-06
-2.46714e-06
1.29405e-06
-2.45536e-06
1.03725e-06
-2.44268e-06
7.85454e-07
-2.42811e-06
5.36618e-07
-2.41077e-06
2.88868e-07
-2.38992e-06
4.04451e-08
-2.36503e-06
-2.10436e-07
-2.33568e-06
-4.65335e-07
-2.30174e-06
-7.25748e-07
-2.26333e-06
-9.93115e-07
-2.22098e-06
-1.26873e-06
-2.17577e-06
-1.55396e-06
-2.1296e-06
-1.85052e-06
-2.08528e-06
-2.16126e-06
-2.04641e-06
-2.49118e-06
-2.01643e-06
-2.84872e-06
-1.99643e-06
-3.24613e-06
-1.98173e-06
-3.69682e-06
-1.95823e-06
-4.20847e-06
-1.89536e-06
-4.77174e-06
-1.71302e-06
-5.31078e-06
-1.39934e-06
-5.54596e-06
-8.53984e-07
-5.2906e-06
-3.52378e-06
-3.90151e-07
1.82229e-06
-8.12317e-07
2.60804e-06
-1.20664e-06
3.18684e-06
-1.55728e-06
3.74315e-06
-1.81738e-06
4.1067e-06
-1.99652e-06
4.21079e-06
-2.11119e-06
4.13478e-06
-2.17681e-06
3.92671e-06
-2.20989e-06
3.65316e-06
-2.22053e-06
3.34684e-06
-2.21812e-06
3.0264e-06
-2.20949e-06
2.70863e-06
-2.1988e-06
2.40052e-06
-2.18843e-06
2.10496e-06
-2.17922e-06
1.82199e-06
-2.17109e-06
1.54987e-06
-2.16344e-06
1.2864e-06
-2.15543e-06
1.02925e-06
-2.1462e-06
7.76223e-07
-2.13496e-06
5.25373e-07
-2.12102e-06
2.74928e-07
-2.10382e-06
2.32467e-08
-2.08294e-06
-2.31318e-07
-2.058e-06
-4.90269e-07
-2.02876e-06
-7.54988e-07
-1.9951e-06
-1.02678e-06
-1.95711e-06
-1.30672e-06
-1.91527e-06
-1.5958e-06
-1.87065e-06
-1.89514e-06
-1.82523e-06
-2.20669e-06
-1.78202e-06
-2.53439e-06
-1.74473e-06
-2.88602e-06
-1.71611e-06
-3.27474e-06
-1.69457e-06
-3.71836e-06
-1.67038e-06
-4.23265e-06
-1.62104e-06
-4.82108e-06
-1.48564e-06
-5.44618e-06
-1.20992e-06
-5.82169e-06
-7.48441e-07
-5.75208e-06
-4.27222e-06
-3.45671e-07
2.16796e-06
-7.2502e-07
2.98739e-06
-1.07292e-06
3.53474e-06
-1.36936e-06
4.03958e-06
-1.57719e-06
4.31453e-06
-1.72442e-06
4.35801e-06
-1.81643e-06
4.22679e-06
-1.86895e-06
3.97924e-06
-1.89526e-06
3.67947e-06
-1.9041e-06
3.35568e-06
-1.9035e-06
3.0258e-06
-1.89869e-06
2.70382e-06
-1.89274e-06
2.39458e-06
-1.88724e-06
2.09946e-06
-1.88254e-06
1.81729e-06
-1.87836e-06
1.5457e-06
-1.87411e-06
1.28215e-06
-1.86907e-06
1.02421e-06
-1.8626e-06
7.69751e-07
-1.85412e-06
5.16899e-07
-1.84318e-06
2.63982e-07
-1.82936e-06
9.43151e-09
-1.81236e-06
-2.48315e-07
-1.79188e-06
-5.10758e-07
-1.76759e-06
-7.79274e-07
-1.73923e-06
-1.05514e-06
-1.70656e-06
-1.33938e-06
-1.66958e-06
-1.63278e-06
-1.62868e-06
-1.93605e-06
-1.58501e-06
-2.25036e-06
-1.54082e-06
-2.57858e-06
-1.49951e-06
-2.92732e-06
-1.46473e-06
-3.30952e-06
-1.43753e-06
-3.74557e-06
-1.41196e-06
-4.25822e-06
-1.37105e-06
-4.86199e-06
-1.27499e-06
-5.54225e-06
-1.02882e-06
-6.06785e-06
-6.36563e-07
-6.14434e-06
-4.90879e-06
-2.93506e-07
2.46147e-06
-6.21209e-07
3.31509e-06
-9.18791e-07
3.83232e-06
-1.16086e-06
4.28165e-06
-1.33027e-06
4.48395e-06
-1.45104e-06
4.47878e-06
-1.52516e-06
4.30092e-06
-1.5686e-06
4.02268e-06
-1.59132e-06
3.70219e-06
-1.60066e-06
3.36501e-06
-1.60304e-06
3.02819e-06
-1.60235e-06
2.70313e-06
-1.60083e-06
2.39306e-06
-1.59946e-06
2.09809e-06
-1.59835e-06
1.81617e-06
-1.59718e-06
1.54454e-06
-1.59547e-06
1.28044e-06
-1.59271e-06
1.02145e-06
-1.58845e-06
7.65493e-07
-1.58235e-06
5.10795e-07
-1.57411e-06
2.55746e-07
-1.5635e-06
-1.18233e-09
-1.55029e-06
-2.61519e-07
-1.53426e-06
-5.26795e-07
-1.51507e-06
-7.98456e-07
-1.49238e-06
-1.07784e-06
-1.46573e-06
-1.36602e-06
-1.43476e-06
-1.66375e-06
-1.39933e-06
-1.97148e-06
-1.35991e-06
-2.28978e-06
-1.318e-06
-2.62048e-06
-1.27649e-06
-2.96883e-06
-1.23925e-06
-3.34677e-06
-1.20897e-06
-3.77585e-06
-1.18227e-06
-4.28492e-06
-1.14636e-06
-4.8979e-06
-1.07452e-06
-5.61408e-06
-8.73507e-07
-6.26887e-06
-5.46779e-07
-6.47106e-06
-5.45557e-06
-2.34255e-07
2.69572e-06
-5.07987e-07
3.58882e-06
-7.55468e-07
4.07981e-06
-9.47803e-07
4.47398e-06
-1.08466e-06
4.6208e-06
-1.18122e-06
4.57535e-06
-1.24185e-06
4.36154e-06
-1.27878e-06
4.05962e-06
-1.29959e-06
3.72299e-06
-1.31022e-06
3.37564e-06
-1.31561e-06
3.03358e-06
-1.31854e-06
2.70606e-06
-1.32059e-06
2.39511e-06
-1.32236e-06
2.09985e-06
-1.32386e-06
1.81767e-06
-1.32484e-06
1.54552e-06
-1.32497e-06
1.28057e-06
-1.32395e-06
1.02042e-06
-1.32153e-06
7.63079e-07
-1.31755e-06
5.06812e-07
-1.31186e-06
2.50059e-07
-1.30435e-06
-8.69549e-09
-1.29488e-06
-2.70984e-07
-1.28329e-06
-5.38386e-07
-1.2693e-06
-8.12454e-07
-1.25249e-06
-1.09465e-06
-1.23233e-06
-1.38619e-06
-1.20819e-06
-1.68789e-06
-1.17957e-06
-2.0001e-06
-1.14638e-06
-2.32296e-06
-1.10949e-06
-2.65737e-06
-1.07122e-06
-3.0071e-06
-1.03546e-06
-3.38253e-06
-1.00609e-06
-3.80522e-06
-9.82406e-07
-4.3086e-06
-9.55178e-07
-4.92513e-06
-9.03974e-07
-5.66529e-06
-7.42437e-07
-6.4304e-06
-4.58952e-07
-6.75455e-06
-5.91452e-06
-1.75632e-07
2.87136e-06
-3.92693e-07
3.80589e-06
-5.89386e-07
4.2765e-06
-7.36427e-07
4.62103e-06
-8.4344e-07
4.72781e-06
-9.19055e-07
4.65096e-06
-9.68453e-07
4.41094e-06
-1.00022e-06
4.09138e-06
-1.01974e-06
3.74251e-06
-1.03163e-06
3.38753e-06
-1.03945e-06
3.0414e-06
-1.04513e-06
2.71174e-06
-1.04974e-06
2.39971e-06
-1.05365e-06
2.10376e-06
-1.05687e-06
1.8209e-06
-1.05929e-06
1.54793e-06
-1.06073e-06
1.28201e-06
-1.06109e-06
1.02078e-06
-1.06029e-06
7.62277e-07
-1.05829e-06
5.04813e-07
-1.05507e-06
2.46842e-07
-1.05061e-06
-1.31547e-08
-1.04486e-06
-2.76734e-07
-1.03771e-06
-5.45536e-07
-1.02894e-06
-8.2123e-07
-1.01815e-06
-1.10543e-06
-1.00479e-06
-1.39955e-06
-9.88097e-07
-1.70458e-06
-9.67307e-07
-2.02089e-06
-9.41928e-07
-2.34834e-06
-9.1226e-07
-2.68704e-06
-8.80011e-07
-3.03935e-06
-8.48723e-07
-3.41381e-06
-8.2303e-07
-3.83091e-06
-8.04849e-07
-4.32678e-06
-7.87135e-07
-4.94284e-06
-7.4972e-07
-5.7027e-06
-6.35872e-07
-6.54425e-06
-4.0009e-07
-6.99033e-06
-6.31461e-06
-1.12481e-07
2.98384e-06
-2.75922e-07
3.96933e-06
-4.23011e-07
4.42359e-06
-5.29516e-07
4.72753e-06
-6.09468e-07
4.80777e-06
-6.66126e-07
4.70762e-06
-7.05301e-07
4.45011e-06
-7.32297e-07
4.11838e-06
-7.50495e-07
3.76071e-06
-7.63129e-07
3.40017e-06
-7.72567e-07
3.05084e-06
-7.80035e-07
2.71921e-06
-7.86226e-07
2.4059e-06
-7.91402e-07
2.10894e-06
-7.95633e-07
1.82513e-06
-7.98927e-07
1.55122e-06
-8.01297e-07
1.28438e-06
-8.02781e-07
1.02227e-06
-8.03441e-07
7.62937e-07
-8.0335e-07
5.04723e-07
-8.02576e-07
2.46068e-07
-8.01165e-07
-1.45648e-08
-7.99134e-07
-2.78766e-07
-7.96433e-07
-5.48237e-07
-7.92903e-07
-8.24759e-07
-7.88222e-07
-1.11011e-06
-7.8185e-07
-1.40592e-06
-7.73017e-07
-1.71341e-06
-7.60814e-07
-2.03309e-06
-7.44473e-07
-2.36468e-06
-7.23864e-07
-2.70765e-06
-7.00164e-07
-3.06305e-06
-6.76478e-07
-3.4375e-06
-6.577e-07
-3.84969e-06
-6.47634e-07
-4.33685e-06
-6.41547e-07
-4.94893e-06
-6.19974e-07
-5.72427e-06
-5.40456e-07
-6.62377e-06
-3.44001e-07
-7.18679e-06
-6.65861e-06
-5.6194e-08
3.04003e-06
-1.62081e-07
4.07521e-06
-2.59519e-07
4.52102e-06
-3.29047e-07
4.79706e-06
-3.83255e-07
4.86197e-06
-4.22155e-07
4.74652e-06
-4.51544e-07
4.4795e-06
-4.73654e-07
4.14049e-06
-4.90091e-07
3.77714e-06
-5.02748e-07
3.41282e-06
-5.12928e-07
3.06102e-06
-5.2128e-07
2.72756e-06
-5.28212e-07
2.41284e-06
-5.33935e-07
2.11466e-06
-5.38598e-07
1.82979e-06
-5.42348e-07
1.55497e-06
-5.45345e-07
1.28738e-06
-5.47764e-07
1.02468e-06
-5.49777e-07
7.6495e-07
-5.51544e-07
5.0649e-07
-5.53202e-07
2.47726e-07
-5.54856e-07
-1.29113e-08
-5.56569e-07
-2.77053e-07
-5.58348e-07
-5.46457e-07
-5.60102e-07
-8.23005e-07
-5.61585e-07
-1.10863e-06
-5.62337e-07
-1.40517e-06
-5.6164e-07
-1.71411e-06
-5.5856e-07
-2.03617e-06
-5.52161e-07
-2.37108e-06
-5.41975e-07
-2.71783e-06
-5.28701e-07
-3.07632e-06
-5.14975e-07
-3.45123e-06
-5.05629e-07
-3.85903e-06
-5.05562e-07
-4.33692e-06
-5.12288e-07
-4.9422e-06
-5.09863e-07
-5.7267e-06
-4.62397e-07
-6.67124e-06
-3.03495e-07
-7.34569e-06
-6.9621e-06
6.30916e-09
3.03372e-06
-4.72909e-08
4.12881e-06
-9.98218e-08
4.57356e-06
-1.35928e-07
4.83316e-06
-1.64594e-07
4.89064e-06
-1.86492e-07
4.76842e-06
-2.05785e-07
4.4988e-06
-2.22471e-07
4.15717e-06
-2.36523e-07
3.7912e-06
-2.48443e-07
3.42474e-06
-2.58557e-07
3.07113e-06
-2.6702e-07
2.73602e-06
-2.7401e-07
2.41983e-06
-2.79706e-07
2.12036e-06
-2.84343e-07
1.83443e-06
-2.88201e-07
1.55883e-06
-2.91577e-07
1.29076e-06
-2.94762e-07
1.02787e-06
-2.98025e-07
7.68213e-07
-3.01599e-07
5.10064e-07
-3.05678e-07
2.51805e-07
-3.10413e-07
-8.1761e-09
-3.15909e-07
-2.71557e-07
-3.22217e-07
-5.40148e-07
-3.29306e-07
-8.15917e-07
-3.37014e-07
-1.10092e-06
-3.44996e-07
-1.39719e-06
-3.52643e-07
-1.70646e-06
-3.59084e-07
-2.02973e-06
-3.6333e-07
-2.36684e-06
-3.64692e-07
-2.71647e-06
-3.63456e-07
-3.07756e-06
-3.61764e-07
-3.45292e-06
-3.64147e-07
-3.85665e-06
-3.76076e-07
-4.32499e-06
-3.97257e-07
-4.92102e-06
-4.13935e-07
-5.71002e-06
-3.93124e-07
-6.69205e-06
-2.65601e-07
-7.47321e-06
-7.2277e-06
6.40379e-08
2.96968e-06
6.48011e-08
4.12805e-06
5.47874e-08
4.58357e-06
5.05099e-08
4.83744e-06
4.74846e-08
4.89367e-06
4.18002e-08
4.7741e-06
3.34291e-08
4.50717e-06
2.29504e-08
4.16765e-06
1.21134e-08
3.80203e-06
1.80128e-09
3.43506e-06
-7.49674e-09
3.08043e-06
-1.54347e-08
2.74396e-06
-2.19314e-08
2.42632e-06
-2.71466e-08
2.12558e-06
-3.13977e-08
1.83868e-06
-3.50823e-08
1.56252e-06
-3.86197e-08
1.29429e-06
-4.24092e-08
1.03166e-06
-4.68071e-08
7.72611e-07
-5.2116e-08
5.15373e-07
-5.85841e-08
2.58273e-07
-6.6408e-08
-3.52133e-10
-7.5727e-08
-2.62238e-07
-8.6629e-08
-5.29246e-07
-9.91297e-08
-8.03416e-07
-1.13147e-07
-1.0869e-06
-1.28447e-07
-1.38189e-06
-1.44577e-07
-1.69033e-06
-1.60817e-07
-2.01349e-06
-1.76255e-07
-2.3514e-06
-1.90034e-07
-2.70269e-06
-2.02094e-07
-3.0655e-06
-2.1409e-07
-3.44092e-06
-2.30115e-07
-3.84062e-06
-2.55866e-07
-4.29924e-06
-2.93001e-07
-4.88389e-06
-3.29761e-07
-5.67326e-06
-3.36003e-07
-6.6858e-06
-2.3701e-07
-7.5722e-06
-7.46471e-06
1.22476e-07
2.84721e-06
1.75138e-07
4.07539e-06
2.06842e-07
4.55187e-06
2.3541e-07
4.80887e-06
2.58912e-07
4.87016e-06
2.69613e-07
4.7634e-06
2.70047e-07
4.50673e-06
2.65407e-07
4.17229e-06
2.5804e-07
3.8094e-06
2.49772e-07
3.44332e-06
2.41868e-07
3.08833e-06
2.35053e-07
2.75077e-06
2.29543e-07
2.43183e-06
2.25204e-07
2.12991e-06
2.21663e-07
1.84222e-06
2.18423e-07
1.56576e-06
2.14954e-07
1.29776e-06
2.10755e-07
1.03586e-06
2.05381e-07
7.77984e-07
1.98459e-07
5.22295e-07
1.89683e-07
2.6705e-07
1.78815e-07
1.05156e-08
1.65674e-07
-2.49097e-07
1.50137e-07
-5.1371e-07
1.32138e-07
-7.85416e-07
1.11693e-07
-1.06646e-06
8.89375e-08
-1.35913e-06
6.41594e-08
-1.66555e-06
3.79059e-08
-1.98724e-06
1.09816e-08
-2.32447e-06
-1.59411e-08
-2.67577e-06
-4.25264e-08
-3.03891e-06
-6.97627e-08
-3.41368e-06
-1.01211e-07
-3.80918e-06
-1.42527e-07
-4.25792e-06
-1.96624e-07
-4.82979e-06
-2.52734e-07
-5.61715e-06
-2.83778e-07
-6.65476e-06
-2.10955e-07
-7.64503e-06
-7.67567e-06
1.81104e-07
2.6661e-06
2.84301e-07
3.97219e-06
3.54661e-07
4.48151e-06
4.13444e-07
4.75009e-06
4.62286e-07
4.82132e-06
4.91743e-07
4.73394e-06
5.02745e-07
4.49573e-06
5.05341e-07
4.1697e-06
5.02569e-07
3.81217e-06
4.9726e-07
3.44863e-06
4.91412e-07
3.09418e-06
4.86193e-07
2.75599e-06
4.82058e-07
2.43597e-06
4.78934e-07
2.13304e-06
4.76407e-07
1.84475e-06
4.73888e-07
1.56828e-06
4.70741e-07
1.30091e-06
4.66364e-07
1.04024e-06
4.60222e-07
7.84126e-07
4.51868e-07
5.3065e-07
4.40931e-07
2.77986e-07
4.27119e-07
2.43281e-08
4.1021e-07
-2.32188e-07
3.90039e-07
-4.93539e-07
3.66493e-07
-7.6187e-07
3.39518e-07
-1.03948e-06
3.09121e-07
-1.32874e-06
2.7543e-07
-1.63186e-06
2.38778e-07
-1.95059e-06
1.99709e-07
-2.28541e-06
1.58975e-07
-2.63504e-06
1.1706e-07
-2.997e-06
7.33598e-08
-3.36998e-06
2.49211e-08
-3.76074e-06
-3.38432e-08
-4.19916e-06
-1.06604e-07
-4.75703e-06
-1.82995e-07
-5.54076e-06
-2.36061e-07
-6.6017e-06
-1.91149e-07
-7.68994e-06
-7.86682e-06
2.37616e-07
2.42849e-06
3.91256e-07
3.81855e-06
4.99394e-07
4.37337e-06
5.88143e-07
4.66134e-06
6.59099e-07
4.75037e-06
7.08857e-07
4.68419e-06
7.32711e-07
4.47188e-06
7.43902e-07
4.1585e-06
7.46897e-07
3.80918e-06
7.4552e-07
3.45001e-06
7.42517e-07
3.09719e-06
7.3953e-07
2.75898e-06
7.3727e-07
2.43823e-06
7.35757e-07
2.13455e-06
7.34571e-07
1.84594e-06
7.33063e-07
1.56978e-06
7.30512e-07
1.30346e-06
7.26217e-07
1.04453e-06
7.19551e-07
7.90791e-07
7.09984e-07
5.40218e-07
6.97074e-07
2.90896e-07
6.80467e-07
4.09351e-08
6.59893e-07
-2.11614e-07
6.35139e-07
-4.68785e-07
6.06023e-07
-7.32755e-07
5.72402e-07
-1.00586e-06
5.34179e-07
-1.29051e-06
4.91351e-07
-1.58904e-06
4.44013e-07
-1.90325e-06
3.92451e-07
-2.23384e-06
3.37222e-07
-2.57981e-06
2.78899e-07
-2.93868e-06
2.17351e-07
-3.30844e-06
1.50329e-07
-3.69372e-06
7.2534e-08
-4.12136e-06
-2.06231e-08
-4.66387e-06
-1.18921e-07
-5.44246e-06
-1.92947e-07
-6.52767e-06
-1.73017e-07
-7.70987e-06
-8.03983e-06
2.92034e-07
2.13645e-06
4.9467e-07
3.61591e-06
6.39409e-07
4.22863e-06
7.5728e-07
4.54347e-06
8.50167e-07
4.65748e-06
9.21029e-07
4.61332e-06
9.60442e-07
4.43247e-06
9.81596e-07
4.13735e-06
9.91706e-07
3.79907e-06
9.95536e-07
3.44618e-06
9.96443e-07
3.09628e-06
9.9652e-07
2.7589e-06
9.96768e-07
2.43798e-06
9.97362e-07
2.13396e-06
9.97931e-07
1.84537e-06
9.978e-07
1.56991e-06
9.96179e-07
1.30508e-06
9.92281e-07
1.04843e-06
9.8539e-07
7.97682e-07
9.74884e-07
5.50724e-07
9.60243e-07
3.05537e-07
9.4104e-07
6.01381e-08
9.1694e-07
-1.87515e-07
8.87662e-07
-4.39507e-07
8.52956e-07
-6.98048e-07
8.12603e-07
-9.6551e-07
7.66398e-07
-1.24431e-06
7.14134e-07
-1.53677e-06
6.55653e-07
-1.84477e-06
5.91026e-07
-2.16922e-06
5.20577e-07
-2.50936e-06
4.4484e-07
-2.86294e-06
3.64105e-07
-3.2277e-06
2.76917e-07
-3.60653e-06
1.7859e-07
-4.02304e-06
6.41185e-08
-4.5494e-06
-5.74742e-08
-5.32087e-06
-1.53228e-07
-6.43192e-06
-1.58793e-07
-7.70431e-06
-8.19863e-06
3.42087e-07
1.79437e-06
5.91566e-07
3.36643e-06
7.71809e-07
4.04839e-06
9.17187e-07
4.39809e-06
1.03434e-06
4.54033e-06
1.12553e-06
4.52213e-06
1.18409e-06
4.37391e-06
1.21785e-06
4.1036e-06
1.23707e-06
3.77985e-06
1.2478e-06
3.43545e-06
1.25406e-06
3.09002e-06
1.25837e-06
2.75459e-06
1.26205e-06
2.4343e-06
1.26548e-06
2.13053e-06
1.26838e-06
1.84246e-06
1.27011e-06
1.56818e-06
1.26985e-06
1.30534e-06
1.26674e-06
1.05154e-06
1.25998e-06
8.04441e-07
1.24887e-06
5.61836e-07
1.23279e-06
3.21612e-07
1.21125e-06
8.16832e-08
1.18382e-06
-1.60086e-07
1.15014e-06
-4.05825e-07
1.10986e-06
-6.57773e-07
1.06267e-06
-9.1832e-07
1.00823e-06
-1.18987e-06
9.46154e-07
-1.4747e-06
8.7606e-07
-1.77468e-06
7.97673e-07
-2.09083e-06
7.11023e-07
-2.42271e-06
6.16673e-07
-2.76859e-06
5.15302e-07
-3.12633e-06
4.0624e-07
-3.49747e-06
2.85681e-07
-3.90248e-06
1.4937e-07
-4.41309e-06
8.11699e-09
-5.17962e-06
-1.11256e-07
-6.31254e-06
-1.41628e-07
-7.67393e-06
-8.34026e-06
3.82849e-07
1.41152e-06
6.76142e-07
3.07314e-06
8.91904e-07
3.83262e-06
1.0651e-06
4.2249e-06
1.2072e-06
4.39823e-06
1.31924e-06
4.41009e-06
1.39998e-06
4.29317e-06
1.45031e-06
4.05327e-06
1.48179e-06
3.74836e-06
1.50196e-06
3.41528e-06
1.51566e-06
3.07632e-06
1.52592e-06
2.74433e-06
1.53441e-06
2.42581e-06
1.54175e-06
2.12319e-06
1.54785e-06
1.83636e-06
1.55214e-06
1.5639e-06
1.5538e-06
1.30368e-06
1.55197e-06
1.05337e-06
1.54579e-06
8.10627e-07
1.53446e-06
5.73158e-07
1.51731e-06
3.38771e-07
1.49372e-06
1.0527e-07
1.4632e-06
-1.29565e-07
1.42526e-06
-3.67887e-07
1.37946e-06
-6.11968e-07
1.32533e-06
-8.64197e-07
1.26238e-06
-1.12692e-06
1.19003e-06
-1.40234e-06
1.10762e-06
-1.69227e-06
1.01461e-06
-1.99781e-06
9.10753e-07
-2.31886e-06
7.96491e-07
-2.65432e-06
6.72774e-07
-3.00261e-06
5.39909e-07
-3.3646e-06
3.94782e-07
-3.75735e-06
2.32927e-07
-4.25123e-06
6.26557e-08
-5.00934e-06
-7.81585e-08
-6.17173e-06
-1.31242e-07
-7.62085e-06
-8.4715e-06
4.04768e-07
1.00675e-06
7.39223e-07
2.73869e-06
9.93656e-07
3.57819e-06
1.1959e-06
4.02265e-06
1.36292e-06
4.2312e-06
1.49882e-06
4.27419e-06
1.60355e-06
4.18843e-06
1.67504e-06
3.98178e-06
1.72319e-06
3.70021e-06
1.75647e-06
3.38199e-06
1.78065e-06
3.05215e-06
1.79935e-06
2.72563e-06
1.81467e-06
2.4105e-06
1.82754e-06
2.11031e-06
1.8381e-06
1.8258e-06
1.84595e-06
1.55606e-06
1.85035e-06
1.29927e-06
1.85046e-06
1.05326e-06
1.8454e-06
8.15685e-07
1.83434e-06
5.84217e-07
1.8165e-06
3.56612e-07
1.79121e-06
1.30565e-07
1.75784e-06
-9.62015e-08
1.7158e-06
-3.25839e-07
1.66448e-06
-5.60648e-07
1.60327e-06
-8.0299e-07
1.53146e-06
-1.05511e-06
1.44825e-06
-1.31913e-06
1.35272e-06
-1.59673e-06
1.24403e-06
-1.88913e-06
1.12171e-06
-2.19653e-06
9.86081e-07
-2.5187e-06
8.38246e-07
-2.85478e-06
6.79372e-07
-3.20573e-06
5.0742e-07
-3.5854e-06
3.18177e-07
-4.06199e-06
1.20475e-07
-4.81164e-06
-4.52901e-08
-6.00596e-06
-1.18616e-07
-7.54752e-06
-8.59011e-06
3.89164e-07
6.17585e-07
7.70323e-07
2.35753e-06
1.06836e-06
3.28016e-06
1.30218e-06
3.78884e-06
1.49493e-06
4.03845e-06
1.65713e-06
4.11199e-06
1.78872e-06
4.05685e-06
1.88631e-06
3.88419e-06
1.95667e-06
3.62985e-06
2.0081e-06
3.33056e-06
2.04702e-06
3.01323e-06
2.07772e-06
2.69494e-06
2.10277e-06
2.38545e-06
2.12352e-06
2.08956e-06
2.14042e-06
1.80891e-06
2.15328e-06
1.54319e-06
2.16158e-06
1.29098e-06
2.16454e-06
1.0503e-06
2.16134e-06
8.18889e-07
2.15112e-06
5.9443e-07
2.13307e-06
3.74671e-07
2.10643e-06
1.57203e-07
2.07045e-06
-6.02242e-08
2.0244e-06
-2.79789e-07
1.96752e-06
-5.03769e-07
1.89899e-06
-7.34464e-07
1.81787e-06
-9.73981e-07
1.72307e-06
-1.22433e-06
1.61341e-06
-1.48708e-06
1.48783e-06
-1.76354e-06
1.34559e-06
-2.05429e-06
1.18699e-06
-2.3601e-06
1.01317e-06
-2.68097e-06
8.26075e-07
-3.01863e-06
6.2489e-07
-3.38421e-06
4.06279e-07
-3.84338e-06
1.7833e-07
-4.58369e-06
-2.04938e-08
-5.80714e-06
-1.13031e-07
-7.45499e-06
-8.70314e-06
3.15076e-07
3.02509e-07
7.62358e-07
1.91025e-06
1.10521e-06
2.9373e-06
1.37401e-06
3.52004e-06
1.59542e-06
3.81704e-06
1.78592e-06
3.92148e-06
1.94786e-06
3.8949e-06
2.07679e-06
3.75526e-06
2.17581e-06
3.53084e-06
2.25173e-06
3.25464e-06
2.31102e-06
2.95394e-06
2.35848e-06
2.64747e-06
2.39725e-06
2.34667e-06
2.42915e-06
2.05766e-06
2.45501e-06
1.78304e-06
2.475e-06
1.5232e-06
2.48883e-06
1.27715e-06
2.49592e-06
1.04321e-06
2.49556e-06
8.19249e-07
2.48694e-06
6.0305e-07
2.46922e-06
3.92387e-07
2.44164e-06
1.84783e-07
2.40323e-06
-2.18139e-08
2.35324e-06
-2.29796e-07
2.29067e-06
-4.41196e-07
2.21447e-06
-6.58265e-07
2.12342e-06
-8.8293e-07
2.01618e-06
-1.11709e-06
1.89128e-06
-1.36218e-06
1.74747e-06
-1.61973e-06
1.58384e-06
-1.89066e-06
1.40065e-06