/*--------------------------------*- C++ -*----------------------------------*\
  =========                 |
  \\      /  F ield         | OpenFOAM: The Open Source CFD Toolbox
   \\    /   O peration     | Website:  https://openfoam.org
    \\  /    A nd           | Version:  12
     \\/     M anipulation  |
\*---------------------------------------------------------------------------*/
FoamFile
{
    format      ascii;
    class       volVectorField;
    location    "8";
    object      U;
}
// * * * * * * * * * * * * * * * * * * * * * * * * * * * * * * * * * * * * * //

dimensions      [0 1 -1 0 0 0 0];

internalField   nonuniform List<vector> 
1600
(
(0.00132569 -0.0011335 0)
(0.00664645 -0.00172463 0)
(0.0116018 -0.00138467 0)
(0.014541 -0.000199541 0)
(0.0147612 0.000371628 0)
(0.014162 0.000151894 0)
(0.0133845 -0.000687227 0)
(0.013232 -0.00126294 0)
(0.0128538 -0.00124423 0)
(0.0116039 -0.000926296 0)
(0.00878328 -0.000738565 0)
(0.00159151 7.94495e-05 0)
(-0.0095615 0.00225345 0)
(-0.0220669 0.00822963 0)
(-0.0484227 0.0138686 0)
(-0.0737496 0.0137388 0)
(-0.0963937 0.0125783 0)
(-0.115928 0.0108838 0)
(-0.132066 0.0091457 0)
(-0.145291 0.00743237 0)
(-0.155413 0.00578163 0)
(-0.162846 0.00419157 0)
(-0.167033 0.00271277 0)
(-0.168705 0.00127712 0)
(-0.167737 -0.00107285 0)
(-0.162956 -0.00266664 0)
(-0.155334 -0.00497171 0)
(-0.143533 -0.00681208 0)
(-0.128335 -0.00911711 0)
(-0.109458 -0.011385 0)
(-0.0871925 -0.0136589 0)
(-0.0621579 -0.0151553 0)
(-0.035634 -0.0154711 0)
(-0.00848026 -0.0140525 0)
(0.0134766 -0.0119197 0)
(0.0298271 -0.00474978 0)
(0.0315514 0.00314278 0)
(0.0251216 0.0052794 0)
(0.0121231 0.00463996 0)
(0.00255285 0.00315333 0)
(0.00233716 -0.0065982 0)
(0.0112501 -0.00959395 0)
(0.01691 -0.00686547 0)
(0.0200435 -0.00257593 0)
(0.0202143 0.000613783 0)
(0.0180305 0.00170976 0)
(0.0142635 0.00147674 0)
(0.00911653 0.00176469 0)
(0.00105637 0.00332385 0)
(-0.0115744 0.00629098 0)
(-0.0298073 0.011789 0)
(-0.0571167 0.020974 0)
(-0.08871 0.0299866 0)
(-0.116145 0.0359466 0)
(-0.138586 0.0356508 0)
(-0.157947 0.0329308 0)
(-0.174038 0.0288993 0)
(-0.187433 0.0244516 0)
(-0.198108 0.0199908 0)
(-0.206367 0.0156246 0)
(-0.212186 0.0114147 0)
(-0.215749 0.00726704 0)
(-0.217012 0.00315808 0)
(-0.216063 -0.00110709 0)
(-0.212618 -0.0057368 0)
(-0.206739 -0.0105487 0)
(-0.198092 -0.0156867 0)
(-0.186473 -0.0211066 0)
(-0.171558 -0.0268045 0)
(-0.152652 -0.0322977 0)
(-0.130644 -0.0374803 0)
(-0.105775 -0.0414732 0)
(-0.0784689 -0.042508 0)
(-0.0501123 -0.039436 0)
(-0.0227675 -0.0309817 0)
(0.000608832 -0.0147776 0)
(0.0166916 0.00369898 0)
(0.0169257 0.0116935 0)
(0.0101329 0.0141534 0)
(0.00157661 0.0109427 0)
(0.00365689 -0.0151568 0)
(0.0121858 -0.017089 0)
(0.0154281 -0.0110681 0)
(0.0161166 -0.0031607 0)
(0.0139225 0.00257693 0)
(0.00885615 0.00562799 0)
(-8.178e-05 0.00783959 0)
(-0.0138703 0.0124101 0)
(-0.0342382 0.021161 0)
(-0.0616543 0.0330465 0)
(-0.0922664 0.0445119 0)
(-0.120229 0.0515206 0)
(-0.144164 0.0545804 0)
(-0.162981 0.0542023 0)
(-0.178465 0.0508275 0)
(-0.190948 0.0458926 0)
(-0.201113 0.0399023 0)
(-0.209277 0.0336374 0)
(-0.215729 0.0273284 0)
(-0.220561 0.0211699 0)
(-0.224012 0.0148463 0)
(-0.225851 0.00888928 0)
(-0.226125 0.00284206 0)
(-0.224708 -0.00324939 0)
(-0.221639 -0.00965078 0)
(-0.216838 -0.0164795 0)
(-0.210196 -0.0240453 0)
(-0.201438 -0.0323304 0)
(-0.190462 -0.0414953 0)
(-0.176856 -0.0508431 0)
(-0.160137 -0.0598234 0)
(-0.139894 -0.0669773 0)
(-0.116251 -0.0701081 0)
(-0.0902479 -0.0679724 0)
(-0.062281 -0.0573307 0)
(-0.0338428 -0.0366104 0)
(-0.00666238 -0.0064257 0)
(0.00161967 0.0117025 0)
(0.00185295 0.0185822 0)
(-0.000244118 0.0145906 0)
(0.00414534 -0.0240825 0)
(0.00877274 -0.0215938 0)
(0.00884536 -0.011306 0)
(0.00566549 -0.000306687 0)
(-0.000543603 0.00826182 0)
(-0.0112157 0.0156301 0)
(-0.0277825 0.0242977 0)
(-0.0505497 0.0359757 0)
(-0.0781457 0.049672 0)
(-0.107574 0.0620251 0)
(-0.133912 0.0700142 0)
(-0.154245 0.0728053 0)
(-0.170278 0.0719643 0)
(-0.182394 0.0680712 0)
(-0.192287 0.0623266 0)
(-0.19996 0.0554716 0)
(-0.206213 0.0479995 0)
(-0.211306 0.0401063 0)
(-0.215633 0.0321406 0)
(-0.218872 0.0243353 0)
(-0.220987 0.0169521 0)
(-0.221903 0.00948282 0)
(-0.221706 0.0020372 0)
(-0.22039 -0.00559412 0)
(-0.21795 -0.013464 0)
(-0.214263 -0.0218064 0)
(-0.209268 -0.0307695 0)
(-0.202828 -0.0404854 0)
(-0.194788 -0.0509922 0)
(-0.185107 -0.0626385 0)
(-0.17363 -0.0748025 0)
(-0.16006 -0.086583 0)
(-0.143699 -0.0953889 0)
(-0.1224 -0.0970833 0)
(-0.0961846 -0.0880724 0)
(-0.0657427 -0.0658308 0)
(-0.0296387 -0.0276875 0)
(-0.00749019 0.00437972 0)
(-0.00231416 0.0164095 0)
(-0.000291914 0.0140876 0)
(0.00239888 -0.0285918 0)
(0.00306103 -0.0213962 0)
(-0.0014708 -0.00688189 0)
(-0.00883515 0.00711065 0)
(-0.0201427 0.0199831 0)
(-0.0365872 0.0329087 0)
(-0.0587477 0.0474208 0)
(-0.0851228 0.0631007 0)
(-0.112337 0.0769741 0)
(-0.13646 0.0859824 0)
(-0.154617 0.088964 0)
(-0.168298 0.0878162 0)
(-0.178792 0.0836992 0)
(-0.186604 0.0773588 0)
(-0.19285 0.0697672 0)
(-0.197815 0.0611741 0)
(-0.202029 0.0522836 0)
(-0.205172 0.0434675 0)
(-0.207179 0.0348371 0)
(-0.20822 0.0263084 0)
(-0.20862 0.017951 0)
(-0.208359 0.00963749 0)
(-0.207544 0.00133443 0)
(-0.206134 -0.00716287 0)
(-0.203999 -0.0159722 0)
(-0.201171 -0.0253341 0)
(-0.197619 -0.0354244 0)
(-0.193306 -0.0464111 0)
(-0.188138 -0.0583507 0)
(-0.181977 -0.0711431 0)
(-0.174574 -0.0844888 0)
(-0.165519 -0.097653 0)
(-0.154601 -0.110137 0)
(-0.140695 -0.118562 0)
(-0.121057 -0.1174 0)
(-0.0931886 -0.100323 0)
(-0.0573613 -0.0645242 0)
(-0.0172848 -0.0137852 0)
(-0.00223752 0.010871 0)
(0.000736005 0.0131144 0)
(-0.000647369 -0.0292355 0)
(-0.00469279 -0.0161156 0)
(-0.0133058 0.00158883 0)
(-0.024898 0.0193134 0)
(-0.0407261 0.0368085 0)
(-0.0612428 0.0546462 0)
(-0.0855065 0.0725967 0)
(-0.110614 0.088441 0)
(-0.132979 0.0992347 0)
(-0.149759 0.10319 0)
(-0.161807 0.102045 0)
(-0.170975 0.097785 0)
(-0.177617 0.0911241 0)
(-0.182509 0.0829749 0)
(-0.186158 0.0739013 0)
(-0.188519 0.0644466 0)
(-0.190005 0.054842 0)
(-0.190714 0.0452668 0)
(-0.191017 0.0358712 0)
(-0.19103 0.0267251 0)
(-0.19059 0.0178261 0)
(-0.189788 0.00904293 0)
(-0.1886 0.000287644 0)
(-0.187009 -0.00861505 0)
(-0.184996 -0.0178295 0)
(-0.182627 -0.0275729 0)
(-0.179925 -0.0380479 0)
(-0.176928 -0.0494707 0)
(-0.173643 -0.0620155 0)
(-0.170038 -0.0757512 0)
(-0.165973 -0.0904877 0)
(-0.161097 -0.105625 0)
(-0.154718 -0.119894 0)
(-0.145686 -0.131465 0)
(-0.13255 -0.137734 0)
(-0.112301 -0.131438 0)
(-0.0820928 -0.105015 0)
(-0.0384828 -0.0523188 0)
(-0.00512673 -0.00197126 0)
(0.00165672 0.0123708 0)
(-0.00390695 -0.0237208 0)
(-0.0124329 -0.00684394 0)
(-0.0246399 0.0139986 0)
(-0.0399009 0.0354138 0)
(-0.0589866 0.0569258 0)
(-0.0810609 0.0776945 0)
(-0.104162 0.096062 0)
(-0.125254 0.109367 0)
(-0.141279 0.115386 0)
(-0.152241 0.114975 0)
(-0.160225 0.11087 0)
(-0.165839 0.104138 0)
(-0.169532 0.0956333 0)
(-0.1719 0.0861083 0)
(-0.173208 0.075986 0)
(-0.17377 0.0656746 0)
(-0.173883 0.0554157 0)
(-0.17366 0.0453899 0)
(-0.173227 0.035665 0)
(-0.172549 0.0262194 0)
(-0.17162 0.0170053 0)
(-0.170456 0.00791607 0)
(-0.169037 -0.00115015 0)
(-0.167361 -0.01033 0)
(-0.165435 -0.0197935 0)
(-0.163313 -0.0297187 0)
(-0.161051 -0.0402945 0)
(-0.158726 -0.0517211 0)
(-0.156407 -0.0641959 0)
(-0.154142 -0.0778793 0)
(-0.151911 -0.092816 0)
(-0.149533 -0.108773 0)
(-0.146464 -0.125006 0)
(-0.141584 -0.139822 0)
(-0.133164 -0.150425 0)
(-0.119197 -0.152776 0)
(-0.0972464 -0.139109 0)
(-0.0634041 -0.0988809 0)
(-0.0146771 -0.0241316 0)
(0.00262903 0.0112409 0)
(-0.00682349 -0.0141482 0)
(-0.018829 0.00651891 0)
(-0.0338495 0.0297436 0)
(-0.0519886 0.0541874 0)
(-0.0724238 0.0780419 0)
(-0.0938416 0.0993589 0)
(-0.114034 0.115867 0)
(-0.130031 0.125036 0)
(-0.14062 0.126346 0)
(-0.147845 0.12284 0)
(-0.152805 0.116331 0)
(-0.155811 0.107674 0)
(-0.157433 0.0977599 0)
(-0.1581 0.087173 0)
(-0.158107 0.0763221 0)
(-0.157751 0.0655412 0)
(-0.157185 0.0549959 0)
(-0.156477 0.0447816 0)
(-0.155654 0.0348936 0)
(-0.154692 0.0252833 0)
(-0.153588 0.0158806 0)
(-0.152314 0.00658895 0)
(-0.15086 -0.00268827 0)
(-0.149211 -0.0120764 0)
(-0.147384 -0.0217182 0)
(-0.145421 -0.0317676 0)
(-0.143391 -0.0423931 0)
(-0.141389 -0.0537788 0)
(-0.139522 -0.0661187 0)
(-0.137892 -0.0795946 0)
(-0.136547 -0.0943253 0)
(-0.13541 -0.11027 0)
(-0.134122 -0.127057 0)
(-0.131794 -0.143726 0)
(-0.126895 -0.158195 0)
(-0.117487 -0.166602 0)
(-0.101635 -0.162831 0)
(-0.0762783 -0.136854 0)
(-0.033269 -0.0681903 0)
(0.000315317 0.000196435 0)
(-0.0085505 -0.000756219 0)
(-0.0234844 0.0229961 0)
(-0.0404196 0.047725 0)
(-0.0598292 0.0737423 0)
(-0.0801141 0.0981873 0)
(-0.0997118 0.11838 0)
(-0.116299 0.131629 0)
(-0.127286 0.135872 0)
(-0.134398 0.133726 0)
(-0.139061 0.127784 0)
(-0.141849 0.119327 0)
(-0.14314 0.10923 0)
(-0.143488 0.0983076 0)
(-0.143218 0.0870519 0)
(-0.142609 0.0758216 0)
(-0.141854 0.0648398 0)
(-0.141029 0.0541919 0)
(-0.140166 0.0439037 0)
(-0.139259 0.0339339 0)
(-0.138281 0.0242226 0)
(-0.137204 0.0146941 0)
(-0.135989 0.00525094 0)
(-0.134613 -0.00419774 0)
(-0.133056 -0.0137568 0)
(-0.131329 -0.0235444 0)
(-0.129464 -0.0336823 0)
(-0.127526 -0.0443099 0)
(-0.125612 -0.055586 0)
(-0.123848 -0.0676973 0)
(-0.122371 -0.080854 0)
(-0.121294 -0.095261 0)
(-0.120634 -0.111039 0)
(-0.120197 -0.128084 0)
(-0.119353 -0.145838 0)
(-0.116758 -0.162864 0)
(-0.110562 -0.176025 0)
(-0.0992235 -0.179434 0)
(-0.0803389 -0.165109 0)
(-0.0503159 -0.115097 0)
(-0.00703991 -0.0149968 0)
(-0.0095508 0.0149655 0)
(-0.0261655 0.0410772 0)
(-0.0438865 0.0665303 0)
(-0.0635086 0.0929403 0)
(-0.0827438 0.116834 0)
(-0.100097 0.134675 0)
(-0.112073 0.142992 0)
(-0.119972 0.143479 0)
(-0.12477 0.138616 0)
(-0.127679 0.130692 0)
(-0.129052 0.120718 0)
(-0.129347 0.109592 0)
(-0.129033 0.0980193 0)
(-0.128362 0.0864019 0)
(-0.127558 0.075014 0)
(-0.126728 0.0639783 0)
(-0.12591 0.0533203 0)
(-0.12511 0.0430193 0)
(-0.124299 0.0330136 0)
(-0.123442 0.0232312 0)
(-0.122497 0.0135916 0)
(-0.121423 0.00400623 0)
(-0.120186 -0.00561345 0)
(-0.11877 -0.0153526 0)
(-0.117172 -0.0253066 0)
(-0.115414 -0.0355703 0)
(-0.113544 -0.046249 0)
(-0.111643 -0.057466 0)
(-0.109828 -0.0693755 0)
(-0.108244 -0.0821767 0)
(-0.107038 -0.0961139 0)
(-0.106304 -0.111442 0)
(-0.105996 -0.128318 0)
(-0.105751 -0.146614 0)
(-0.104514 -0.165516 0)
(-0.100379 -0.182533 0)
(-0.0920504 -0.191695 0)
(-0.0774482 -0.186468 0)
(-0.0544681 -0.150585 0)
(-0.0158481 -0.0430266 0)
(-0.00998231 0.0318526 0)
(-0.027114 0.0598768 0)
(-0.0446248 0.0852835 0)
(-0.0635796 0.111221 0)
(-0.0813479 0.133489 0)
(-0.0953118 0.147311 0)
(-0.103973 0.151468 0)
(-0.110022 0.148913 0)
(-0.113188 0.141834 0)
(-0.115002 0.132307 0)
(-0.115541 0.121188 0)
(-0.115361 0.109359 0)
(-0.1148 0.097397 0)
(-0.114062 0.0856145 0)
(-0.113307 0.0741941 0)
(-0.112585 0.0631817 0)
(-0.111914 0.0525589 0)
(-0.111275 0.0422717 0)
(-0.110631 0.0322441 0)
(-0.10994 0.0223965 0)
(-0.109156 0.0126486 0)
(-0.108244 0.00292012 0)
(-0.107171 -0.00687092 0)
(-0.105918 -0.0167963 0)
(-0.104477 -0.0269325 0)
(-0.102857 -0.0373546 0)
(-0.101089 -0.0481401 0)
(-0.099229 -0.0593799 0)
(-0.0973695 -0.0711932 0)
(-0.0956377 -0.0837508 0)
(-0.0941848 -0.097299 0)
(-0.0931481 -0.112161 0)
(-0.0925823 -0.128676 0)
(-0.0923387 -0.147027 0)
(-0.0917286 -0.166982 0)
(-0.0889845 -0.187106 0)
(-0.0825397 -0.201229 0)
(-0.070902 -0.203232 0)
(-0.0509069 -0.180019 0)
(-0.018965 -0.0928967 0)
(-0.00972977 0.0486708 0)
(-0.0264634 0.0783495 0)
(-0.0430907 0.103134 0)
(-0.0607078 0.127846 0)
(-0.0766591 0.147831 0)
(-0.0870958 0.157088 0)
(-0.0941645 0.158078 0)
(-0.098534 0.152858 0)
(-0.100726 0.143992 0)
(-0.101878 0.13318 0)
(-0.102009 0.121216 0)
(-0.101688 0.10892 0)
(-0.101131 0.0967419 0)
(-0.100508 0.084907 0)
(-0.0999189 0.0735161 0)
(-0.0993859 0.0625581 0)
(-0.0989053 0.05198 0)
(-0.0984466 0.0417052 0)
(-0.0979705 0.0316494 0)
(-0.0974373 0.021731 0)
(-0.0968079 0.0118726 0)
(-0.0960495 0.00200144 0)
(-0.0951386 -0.00795692 0)
(-0.0940554 -0.0180668 0)
(-0.0927879 -0.0283912 0)
(-0.091337 -0.0389916 0)
(-0.0897143 -0.0499254 0)
(-0.0879527 -0.0612561 0)
(-0.0861122 -0.0730677 0)
(-0.0842896 -0.0854931 0)
(-0.0826187 -0.0987548 0)
(-0.0812508 -0.113201 0)
(-0.0803024 -0.129294 0)
(-0.0797591 -0.147468 0)
(-0.0792717 -0.167882 0)
(-0.0774852 -0.189936 0)
(-0.0720301 -0.209421 0)
(-0.0629805 -0.216444 0)
(-0.0457376 -0.202783 0)
(-0.0159736 -0.126867 0)
(-0.00897986 0.0648031 0)
(-0.0246015 0.0958994 0)
(-0.0398896 0.119713 0)
(-0.0560526 0.142913 0)
(-0.069324 0.159369 0)
(-0.0773123 0.164966 0)
(-0.0832167 0.163211 0)
(-0.0864006 0.155822 0)
(-0.088045 0.145509 0)
(-0.0888286 0.133681 0)
(-0.0888319 0.121103 0)
(-0.0885564 0.108503 0)
(-0.0881329 0.0962123 0)
(-0.0877015 0.0843803 0)
(-0.0873154 0.0730386 0)
(-0.0869796 0.0621337 0)
(-0.0866782 0.051587 0)
(-0.0863781 0.0413083 0)
(-0.0860445 0.0312109 0)
(-0.0856446 0.0212145 0)
(-0.0851478 0.0112465 0)
(-0.084529 0.00123911 0)
(-0.0837713 -0.00887534 0)
(-0.0828571 -0.0191576 0)
(-0.0817739 -0.0296637 0)
(-0.080515 -0.0404473 0)
(-0.079079 -0.0515541 0)
(-0.077477 -0.063029 0)
(-0.0757395 -0.0749274 0)
(-0.0739285 -0.0873439 0)
(-0.0721466 -0.100461 0)
(-0.0705352 -0.11461 0)
(-0.0692416 -0.130319 0)
(-0.0683375 -0.148229 0)
(-0.0676714 -0.168815 0)
(-0.0663383 -0.19202 0)
(-0.0618711 -0.215966 0)
(-0.0544485 -0.227995 0)
(-0.0400381 -0.223313 0)
(-0.0141156 -0.16036 0)
(-0.00784249 0.0794762 0)
(-0.0219547 0.111973 0)
(-0.0355809 0.134613 0)
(-0.0499818 0.155903 0)
(-0.0604704 0.168591 0)
(-0.0668632 0.171467 0)
(-0.0718253 0.167294 0)
(-0.0741847 0.158149 0)
(-0.0755373 0.146665 0)
(-0.0761418 0.134042 0)
(-0.0761755 0.121022 0)
(-0.076031 0.10822 0)
(-0.0757899 0.095871 0)
(-0.07556 0.0840588 0)
(-0.0753643 0.0727593 0)
(-0.0751987 0.0618887 0)
(-0.0750428 0.0513508 0)
(-0.0748678 0.0410496 0)
(-0.0746462 0.0308988 0)
(-0.0743544 0.0208217 0)
(-0.073971 0.0107499 0)
(-0.0734785 0.000619441 0)
(-0.0728655 -0.00963327 0)
(-0.0721182 -0.0200677 0)
(-0.0712242 -0.0307383 0)
(-0.0701725 -0.0416953 0)
(-0.0689523 -0.0529798 0)
(-0.0675579 -0.0646253 0)
(-0.065996 -0.0766668 0)
(-0.0642972 -0.0891651 0)
(-0.0625304 -0.102257 0)
(-0.0608133 -0.116235 0)
(-0.0592993 -0.131635 0)
(-0.0581152 -0.149238 0)
(-0.0572269 -0.169823 0)
(-0.0561299 -0.193805 0)
(-0.0528843 -0.220193 0)
(-0.0459138 -0.238284 0)
(-0.0348605 -0.238992 0)
(-0.0115703 -0.185712 0)
(-0.00660232 0.0924334 0)
(-0.0187754 0.126193 0)
(-0.0305324 0.147517 0)
(-0.0429119 0.166699 0)
(-0.0509352 0.176112 0)
(-0.0565268 0.17685 0)
(-0.0603764 0.170596 0)
(-0.0622299 0.160053 0)
(-0.063408 0.147628 0)
(-0.0639462 0.134392 0)
(-0.0640796 0.12105 0)
(-0.0640884 0.108106 0)
(-0.0640275 0.0957216 0)
(-0.0639735 0.0839236 0)
(-0.0639332 0.0726465 0)
(-0.0638988 0.0617857 0)
(-0.0638516 0.0512349 0)
(-0.0637701 0.0408965 0)
(-0.0636357 0.0306865 0)
(-0.0634332 0.020532 0)
(-0.0631497 0.0103677 0)
(-0.0627745 0.000132054 0)
(-0.0623006 -0.0102366 0)
(-0.0617181 -0.0207984 0)
(-0.061016 -0.0316093 0)
(-0.060181 -0.0427209 0)
(-0.0591964 -0.0541742 0)
(-0.0580453 -0.0659983 0)
(-0.0567161 -0.0782149 0)
(-0.0552144 -0.0908576 0)
(-0.0535791 -0.10402 0)
(-0.0518999 -0.117939 0)
(-0.0503202 -0.133121 0)
(-0.0489967 -0.150422 0)
(-0.0479727 -0.170897 0)
(-0.0469696 -0.19533 0)
(-0.0445584 -0.223527 0)
(-0.0383836 -0.247562 0)
(-0.030423 -0.253369 0)
(-0.0101013 -0.209483 0)
(-0.00508317 0.103 0)
(-0.015259 0.138269 0)
(-0.0251465 0.158473 0)
(-0.0353458 0.175384 0)
(-0.0414328 0.182256 0)
(-0.0462093 0.181186 0)
(-0.049154 0.173295 0)
(-0.0506848 0.161659 0)
(-0.05174 0.148494 0)
(-0.0522692 0.134789 0)
(-0.0525148 0.121205 0)
(-0.0526634 0.108154 0)
(-0.0527532 0.0957365 0)
(-0.0528354 0.0839367 0)
(-0.0529093 0.0726593 0)
(-0.0529679 0.0617864 0)
(-0.0529977 0.0512068 0)
(-0.0529854 0.0408234 0)
(-0.0529205 0.030555 0)
(-0.0527953 0.0203317 0)
(-0.0526037 0.0100905 0)
(-0.0523407 -0.000229353 0)
(-0.0520027 -0.010689 0)
(-0.0515836 -0.0213503 0)
(-0.0510741 -0.0322731 0)
(-0.0504612 -0.0435129 0)
(-0.0497254 -0.0551149 0)
(-0.0488426 -0.0671093 0)
(-0.0477885 -0.0795104 0)
(-0.0465496 -0.0923314 0)
(-0.0451401 -0.105626 0)
(-0.0436232 -0.119574 0)
(-0.0421281 -0.134627 0)
(-0.0408327 -0.151658 0)
(-0.0398517 -0.171925 0)
(-0.0389994 -0.196539 0)
(-0.0372753 -0.22571 0)
(-0.0326044 -0.254503 0)
(-0.0256571 -0.265091 0)
(-0.00847963 -0.22814 0)
(-0.00373904 0.111497 0)
(-0.0116218 0.148212 0)
(-0.0196585 0.167453 0)
(-0.0276627 0.18218 0)
(-0.032126 0.187138 0)
(-0.036091 0.184632 0)
(-0.0383001 0.1755 0)
(-0.0395903 0.163036 0)
(-0.0405396 0.149303 0)
(-0.0410782 0.135243 0)
(-0.0414178 0.121474 0)
(-0.0416749 0.108332 0)
(-0.0418755 0.0958759 0)
(-0.0420518 0.0840562 0)
(-0.0422017 0.0727588 0)
(-0.0423212 0.0618583 0)
(-0.0424033 0.0512413 0)
(-0.0424426 0.0408122 0)
(-0.0424357 0.0304921 0)
(-0.0423808 0.0202132 0)
(-0.0422772 0.0099133 0)
(-0.042124 -0.000467972 0)
(-0.0419205 -0.0109924 0)
(-0.0416639 -0.0217243 0)
(-0.0413474 -0.0327281 0)
(-0.0409594 -0.0440652 0)
(-0.0404804 -0.0557879 0)
(-0.0398834 -0.0679314 0)
(-0.0391364 -0.0805087 0)
(-0.0382119 -0.0935182 0)
(-0.0371042 -0.106978 0)
(-0.035852 -0.121011 0)
(-0.0345636 -0.135998 0)
(-0.0334194 -0.15279 0)
(-0.0325835 -0.172795 0)
(-0.0319518 -0.197475 0)
(-0.0308038 -0.227503 0)
(-0.0273834 -0.260057 0)
(-0.0224274 -0.275534 0)
(-0.00736511 -0.245547 0)
(-0.00204839 0.117229 0)
(-0.00791719 0.155857 0)
(-0.0140845 0.174376 0)
(-0.020029 0.187267 0)
(-0.0231508 0.190888 0)
(-0.0262651 0.187293 0)
(-0.0278561 0.177284 0)
(-0.0289268 0.164219 0)
(-0.0297682 0.150064 0)
(-0.0303087 0.13574 0)
(-0.0307103 0.121827 0)
(-0.0310392 0.108602 0)
(-0.0313103 0.0960983 0)
(-0.0315428 0.0842435 0)
(-0.0317362 0.0729125 0)
(-0.0318911 0.0619759 0)
(-0.0320071 0.05132 0)
(-0.0320855 0.0408506 0)
(-0.0321289 0.0304903 0)
(-0.0321402 0.0201721 0)
(-0.0321227 0.00983404 0)
(-0.0320787 -0.000584806 0)
(-0.0320099 -0.0111474 0)
(-0.0319159 -0.0219205 0)
(-0.0317928 -0.0329735 0)
(-0.0316312 -0.0443742 0)
(-0.0314138 -0.0561834 0)
(-0.031114 -0.0684448 0)
(-0.0306966 -0.081175 0)
(-0.0301256 -0.0943639 0)
(-0.0293806 -0.108001 0)
(-0.0284806 -0.122154 0)
(-0.0275145 -0.137126 0)
(-0.026654 -0.153705 0)
(-0.0260867 -0.173371 0)
(-0.025783 -0.197964 0)
(-0.0252793 -0.228727 0)
(-0.0230771 -0.263578 0)
(-0.0192934 -0.283828 0)
(-0.00622143 -0.259675 0)
(-0.000877106 0.121029 0)
(-0.00428468 0.161327 0)
(-0.00855901 0.179309 0)
(-0.0125508 0.190795 0)
(-0.0145495 0.193615 0)
(-0.0167385 0.189219 0)
(-0.0177966 0.178663 0)
(-0.0186422 0.165208 0)
(-0.0193624 0.150764 0)
(-0.019883 0.136254 0)
(-0.0203108 0.122227 0)
(-0.0206751 0.108925 0)
(-0.0209803 0.0963666 0)
(-0.0212374 0.0844663 0)
(-0.0214486 0.0730941 0)
(-0.0216191 0.0621196 0)
(-0.0217549 0.0514293 0)
(-0.021863 0.04093 0)
(-0.0219509 0.0305447 0)
(-0.0220255 0.0202062 0)
(-0.022093 0.00985208 0)
(-0.0221584 -0.000579695 0)
(-0.0222251 -0.0111535 0)
(-0.0222949 -0.0219386 0)
(-0.0223664 -0.0330085 0)
(-0.0224329 -0.0444376 0)
(-0.0224804 -0.0562957 0)
(-0.0224853 -0.0686365 0)
(-0.022413 -0.081484 0)
(-0.022224 -0.0948255 0)
(-0.0218875 -0.108628 0)
(-0.0214055 -0.122909 0)
(-0.0208468 -0.137894 0)
(-0.020367 -0.15429 0)
(-0.0201666 -0.173596 0)
(-0.0202937 -0.197971 0)
(-0.0204667 -0.22922 0)
(-0.0193621 -0.266222 0)
(-0.0170584 -0.291026 0)
(-0.00537964 -0.272878 0)
(0.000978359 0.12192 0)
(-0.000652028 0.164587 0)
(-0.00306978 0.182328 0)
(-0.00528547 0.192921 0)
(-0.00624187 0.195288 0)
(-0.00750317 0.190462 0)
(-0.00806652 0.179661 0)
(-0.00866629 0.166002 0)
(-0.00924522 0.151385 0)
(-0.00971762 0.136754 0)
(-0.0101373 0.12264 0)
(-0.0105051 0.109267 0)
(-0.0108148 0.09665 0)
(-0.0110713 0.0846986 0)
(-0.0112797 0.0732831 0)
(-0.0114501 0.0622739 0)
(-0.011594 0.0515584 0)
(-0.0117237 0.0410434 0)
(-0.0118509 0.0306511 0)
(-0.0119859 0.0203136 0)
(-0.0121373 0.00996719 0)
(-0.0123123 -0.000451764 0)
(-0.0125157 -0.0110094 0)
(-0.0127511 -0.0217771 0)
(-0.013019 -0.0328321 0)
(-0.0133155 -0.0442543 0)
(-0.013631 -0.0561213 0)
(-0.0139463 -0.0684981 0)
(-0.0142304 -0.0814188 0)
(-0.0144449 -0.0948733 0)
(-0.0145534 -0.108814 0)
(-0.0145445 -0.123213 0)
(-0.0144674 -0.13822 0)
(-0.0144572 -0.154447 0)
(-0.0147163 -0.173371 0)
(-0.0153668 -0.197419 0)
(-0.0162373 -0.228909 0)
(-0.0161161 -0.267446 0)
(-0.0150062 -0.296544 0)
(-0.00454178 -0.28384 0)
(0.00214242 0.120619 0)
(0.00282255 0.165683 0)
(0.00229152 0.183559 0)
(0.00173922 0.193753 0)
(0.00183513 0.195992 0)
(0.00150633 0.191007 0)
(0.00140971 0.180221 0)
(0.0010758 0.166557 0)
(0.000663299 0.151894 0)
(0.000268426 0.137208 0)
(-0.000113446 0.123035 0)
(-0.000456614 0.1096 0)
(-0.000745167 0.0969231 0)
(-0.000980296 0.0849196 0)
(-0.00116955 0.0734633 0)
(-0.00132699 0.0624268 0)
(-0.00146926 0.0516983 0)
(-0.00161318 0.0411841 0)
(-0.00177425 0.0308053 0)
(-0.00196586 0.020492 0)
(-0.00219919 0.0101787 0)
(-0.00248305 -0.000200166 0)
(-0.00282425 -0.0107126 0)
(-0.00322751 -0.0214323 0)
(-0.00369462 -0.0324398 0)
(-0.00422453 -0.0438197 0)
(-0.00481143 -0.0556567 0)
(-0.00544069 -0.0680246 0)
(-0.00608851 -0.0809679 0)
(-0.00672302 -0.0944836 0)
(-0.00730476 -0.108517 0)
(-0.00781191 -0.123006 0)
(-0.00827549 -0.138028 0)
(-0.00880759 -0.154097 0)
(-0.0096042 -0.172638 0)
(-0.0108514 -0.196268 0)
(-0.012475 -0.227865 0)
(-0.013267 -0.267825 0)
(-0.0134881 -0.301154 0)
(-0.00389192 -0.294133 0)
(0.00339931 0.11723 0)
(0.00627153 0.164709 0)
(0.00752811 0.183172 0)
(0.00853531 0.193295 0)
(0.00973089 0.195575 0)
(0.0102885 0.190955 0)
(0.010684 0.180397 0)
(0.0106605 0.166872 0)
(0.010442 0.152267 0)
(0.0101536 0.137586 0)
(0.00983831 0.123383 0)
(0.00954337 0.109899 0)
(0.00929496 0.097167 0)
(0.00909688 0.0851132 0)
(0.00894015 0.0736209 0)
(0.00880692 0.0625668 0)
(0.00867604 0.0518399 0)
(0.00852632 0.0413455 0)
(0.0083384 0.0310023 0)
(0.00809573 0.0207382 0)
(0.00778465 0.0104848 0)
(0.0073943 0.000174422 0)
(0.00691621 -0.010263 0)
(0.00634462 -0.0209033 0)
(0.00567574 -0.0318292 0)
(0.00490796 -0.0431291 0)
(0.00404487 -0.0548936 0)
(0.0030958 -0.0672048 0)
(0.00207539 -0.0801191 0)
(0.00100867 -0.0936406 0)
(-6.82968e-05 -0.107709 0)
(-0.00112934 -0.122242 0)
(-0.00218773 -0.137255 0)
(-0.00332898 -0.153162 0)
(-0.00473389 -0.17131 0)
(-0.00663072 -0.194449 0)
(-0.00905613 -0.225993 0)
(-0.010634 -0.267025 0)
(-0.0121183 -0.30446 0)
(-0.0032334 -0.302829 0)
(0.0047792 0.111181 0)
(0.00973184 0.161646 0)
(0.012672 0.181173 0)
(0.0151275 0.191569 0)
(0.0174352 0.194162 0)
(0.0188717 0.190192 0)
(0.0198189 0.180164 0)
(0.0201422 0.166916 0)
(0.0201497 0.152478 0)
(0.0200021 0.137865 0)
(0.0197824 0.123665 0)
(0.019558 0.110144 0)
(0.0193682 0.0973619 0)
(0.0192224 0.0852644 0)
(0.0191113 0.0737443 0)
(0.0190138 0.0626841 0)
(0.0189049 0.0519745 0)
(0.0187591 0.0415193 0)
(0.0185531 0.0312348 0)
(0.0182671 0.0210457 0)
(0.017885 0.0108809 0)
(0.0173931 0.000669592 0)
(0.0167814 -0.00966104 0)
(0.0160426 -0.0201891 0)
(0.0151708 -0.0309994 0)
(0.0141627 -0.0421828 0)
(0.0130187 -0.0538322 0)
(0.0117403 -0.0660352 0)
(0.0103358 -0.0788589 0)
(0.00882546 -0.0923196 0)
(0.00723289 -0.10636 0)
(0.00558355 -0.120882 0)
(0.00388186 -0.135849 0)
(0.00206851 -0.151577 0)
(-1.25588e-05 -0.169323 0)
(-0.00262688 -0.191921 0)
(-0.00593871 -0.223355 0)
(-0.00820627 -0.265354 0)
(-0.011065 -0.306998 0)
(-0.00266303 -0.311015 0)
(0.00613176 0.102923 0)
(0.0131395 0.15658 0)
(0.0177184 0.177644 0)
(0.0215411 0.188636 0)
(0.0250277 0.191695 0)
(0.0271793 0.18866 0)
(0.0288062 0.179531 0)
(0.0295479 0.166664 0)
(0.0298276 0.152488 0)
(0.0298635 0.138009 0)
(0.0297733 0.123848 0)
(0.0296485 0.110312 0)
(0.0295403 0.097493 0)
(0.0294645 0.0853595 0)
(0.0294129 0.0738206 0)
(0.0293635 0.0627666 0)
(0.0292877 0.0520904 0)
(0.0291564 0.0416949 0)
(0.0289425 0.0314931 0)
(0.0286227 0.0214064 0)
(0.0281776 0.0113599 0)
(0.0275911 0.00128002 0)
(0.0268508 -0.00890959 0)
(0.0259478 -0.0192891 0)
(0.024874 -0.029945 0)
(0.0236233 -0.0409706 0)
(0.0221913 -0.0524618 0)
(0.0205753 -0.0645099 0)
(0.0187789 -0.0771845 0)
(0.0168077 -0.0905099 0)
(0.0146745 -0.104443 0)
(0.0124067 -0.118882 0)
(0.0100145 -0.133755 0)
(0.00747519 -0.149282 0)
(0.00465445 -0.166602 0)
(0.00125921 -0.188608 0)
(-0.00302566 -0.219852 0)
(-0.00589711 -0.262764 0)
(-0.0103268 -0.308181 0)
(-0.00181619 -0.318101 0)
(0.0073882 0.0924251 0)
(0.0164371 0.149499 0)
(0.0226281 0.1726 0)
(0.0277458 0.184509 0)
(0.0323024 0.188452 0)
(0.0353163 0.186201 0)
(0.0376148 0.178316 0)
(0.0388842 0.166049 0)
(0.039498 0.152245 0)
(0.03977 0.137973 0)
(0.0398573 0.1239 0)
(0.0398697 0.110378 0)
(0.0398719 0.0975385 0)
(0.0398884 0.0853815 0)
(0.0399145 0.0738357 0)
(0.0399284 0.0628019 0)
(0.0398997 0.0521765 0)
(0.0397959 0.0418616 0)
(0.0395864 0.0317674 0)
(0.0392442 0.021811 0)
(0.0387465 0.0119141 0)
(0.0380745 0.00199919 0)
(0.0372126 -0.0080135 0)
(0.0361495 -0.0182063 0)
(0.0348746 -0.0286669 0)
(0.0333787 -0.0394898 0)
(0.0316541 -0.0507716 0)
(0.0296935 -0.0626063 0)
(0.0274889 -0.0750697 0)
(0.0250352 -0.0881932 0)
(0.0223392 -0.101938 0)
(0.0194174 -0.116208 0)
(0.0162839 -0.130918 0)
(0.0129627 -0.146213 0)
(0.00933852 -0.163098 0)
(0.00509433 -0.184483 0)
(-0.000248068 -0.215503 0)
(-0.00368262 -0.259381 0)
(-0.0097071 -0.308527 0)
(-0.0010959 -0.324842 0)
(0.00848481 0.0797889 0)
(0.019513 0.1405 0)
(0.0272933 0.16612 0)
(0.0336557 0.179254 0)
(0.0391311 0.184302 0)
(0.0432382 0.182933 0)
(0.046177 0.176384 0)
(0.0481041 0.164986 0)
(0.0491494 0.151684 0)
(0.0497326 0.137702 0)
(0.0500607 0.123773 0)
(0.0502626 0.110302 0)
(0.0504172 0.097469 0)
(0.0505587 0.0853078 0)
(0.0506886 0.0737715 0)
(0.0507871 0.0627743 0)
(0.0508235 0.0522183 0)
(0.0507635 0.0420057 0)
(0.0505733 0.0320444 0)
(0.0502226 0.0222475 0)
(0.049685 0.0125324 0)
(0.0489386 0.00281801 0)
(0.0479643 -0.00697932 0)
(0.0467476 -0.016944 0)
(0.0452747 -0.0271649 0)
(0.0435325 -0.0377375 0)
(0.0415088 -0.0487584 0)
(0.0391899 -0.0603201 0)
(0.0365599 -0.0724979 0)
(0.0336038 -0.0853319 0)
(0.0303106 -0.0987989 0)
(0.0266891 -0.112815 0)
(0.022766 -0.127286 0)
(0.018595 -0.142298 0)
(0.0141002 -0.158737 0)
(0.0089283 -0.179484 0)
(0.00248243 -0.21025 0)
(-0.0014204 -0.255063 0)
(-0.00897662 -0.307727 0)
(-0.000168656 -0.330787 0)
(0.00923926 0.0650824 0)
(0.0221984 0.129524 0)
(0.0314907 0.158151 0)
(0.0390905 0.172873 0)
(0.0455268 0.179138 0)
(0.0506395 0.17894 0)
(0.0544064 0.173599 0)
(0.0570909 0.163342 0)
(0.0587112 0.150707 0)
(0.05972 0.137114 0)
(0.0603807 0.123398 0)
(0.0608493 0.11003 0)
(0.0612188 0.0972406 0)
(0.0615349 0.0851041 0)
(0.0618071 0.0736007 0)
(0.0620209 0.0626615 0)
(0.0621475 0.0521966 0)
(0.0621525 0.0421103 0)
(0.0620002 0.0323087 0)
(0.0616578 0.0227015 0)
(0.0610951 0.0132023 0)
(0.0602874 0.00372568 0)
(0.0592118 -0.00581552 0)
(0.0578493 -0.0155072 0)
(0.0561824 -0.0254396 0)
(0.0541931 -0.0357084 0)
(0.0518633 -0.0464087 0)
(0.0491723 -0.0576312 0)
(0.0460947 -0.0694496 0)
(0.0426031 -0.081907 0)
(0.0386743 -0.0949915 0)
(0.0343124 -0.108647 0)
(0.0295353 -0.122795 0)
(0.0244452 -0.137473 0)
(0.0189826 -0.153435 0)
(0.0127741 -0.173536 0)
(0.00521242 -0.204046 0)
(0.000883447 -0.249968 0)
(-0.00878326 -0.3061 0)
(0.000696175 -0.336542 0)
(0.00938423 0.0487897 0)
(0.0241331 0.116776 0)
(0.034941 0.14875 0)
(0.0438088 0.165372 0)
(0.0512688 0.172942 0)
(0.0573617 0.174022 0)
(0.0621195 0.169922 0)
(0.065678 0.160957 0)
(0.0680516 0.149169 0)
(0.0696481 0.136093 0)
(0.0707763 0.12268 0)
(0.0716223 0.109483 0)
(0.0722974 0.0967905 0)
(0.0728609 0.0847205 0)
(0.0733331 0.073284 0)
(0.0737075 0.0624322 0)
(0.0739603 0.052086 0)
(0.0740593 0.0421538 0)
(0.073969 0.0325417 0)
(0.0736555 0.0231565 0)
(0.0730851 0.0139092 0)
(0.072231 0.00470996 0)
(0.0710659 -0.0045315 0)
(0.0695656 -0.0139017 0)
(0.0677082 -0.0234919 0)
(0.0654697 -0.0333974 0)
(0.0628243 -0.0437102 0)
(0.0597427 -0.0545176 0)
(0.0561897 -0.0658896 0)
(0.0521262 -0.077873 0)
(0.0475161 -0.09047 0)
(0.0423575 -0.103652 0)
(0.0366646 -0.117368 0)
(0.0305763 -0.131648 0)
(0.0240435 -0.147103 0)
(0.016736 -0.166512 0)
(0.0079757 -0.196673 0)
(0.00328668 -0.243805 0)
(-0.00857591 -0.303593 0)
(0.001835 -0.341707 0)
(0.00803304 0.0314658 0)
(0.0248321 0.102064 0)
(0.037221 0.137676 0)
(0.0474756 0.156678 0)
(0.0560675 0.165743 0)
(0.0631885 0.168065 0)
(0.0690259 0.165246 0)
(0.0736242 0.15764 0)
(0.0769604 0.14687 0)
(0.0793601 0.134464 0)
(0.0811426 0.121475 0)
(0.082523 0.108543 0)
(0.0836334 0.0960234 0)
(0.0845497 0.084081 0)
(0.0853064 0.0727617 0)
(0.085908 0.0620398 0)
(0.0863392 0.0518498 0)
(0.0865733 0.0421071 0)
(0.0865775 0.0327195 0)
(0.0863186 0.0235929 0)
(0.0857616 0.0146372 0)
(0.0848773 0.00575782 0)
(0.0836348 -0.00313652 0)
(0.082004 -0.0121317 0)
(0.0799575 -0.0213204 0)
(0.0774645 -0.030796 0)
(0.07449 -0.0406457 0)
(0.0709944 -0.0509526 0)
(0.0669316 -0.0617821 0)
(0.0622512 -0.0731846 0)
(0.0569059 -0.0851759 0)
(0.0508908 -0.0977657 0)
(0.0442145 -0.110935 0)
(0.0370425 -0.12473 0)
(0.0293429 -0.139643 0)
(0.0208456 -0.158355 0)
(0.0108096 -0.188163 0)
(0.00572791 -0.236503 0)
(-0.00884027 -0.300425 0)
(0.00310629 -0.346556 0)
(0.00427177 0.0161605 0)
(0.0234123 0.0859243 0)
(0.0378972 0.124891 0)
(0.0497333 0.146623 0)
(0.05959 0.157469 0)
(0.0678122 0.161009 0)
(0.0748055 0.159408 0)
(0.0806236 0.15318 0)
(0.0851597 0.143577 0)
(0.088623 0.132015 0)
(0.0913019 0.119599 0)
(0.0934254 0.107056 0)
(0.0951471 0.0948106 0)
(0.0965619 0.0830811 0)
(0.0977214 0.0719503 0)
(0.0986449 0.0614184 0)
(0.0993293 0.0514366 0)
(0.0997563 0.0419301 0)
(0.0999004 0.0328109 0)
(0.0997296 0.0239864 0)
(0.0992133 0.0153676 0)
(0.0983168 0.00685541 0)
(0.0970086 -0.00163948 0)
(0.0952529 -0.0102 0)
(0.0930155 -0.0189209 0)
(0.0902585 -0.0278916 0)
(0.0869362 -0.0371927 0)
(0.0829975 -0.0469028 0)
(0.0783849 -0.0570822 0)
(0.0730384 -0.0677876 0)
(0.0669014 -0.0790494 0)
(0.0599691 -0.0909206 0)
(0.0522425 -0.103419 0)
(0.0439125 -0.116634 0)