/*--------------------------------*- C++ -*----------------------------------*\
  =========                 |
  \\      /  F ield         | OpenFOAM: The Open Source CFD Toolbox
   \\    /   O peration     | Website:  https://openfoam.org
    \\  /    A nd           | Version:  12
     \\/     M anipulation  |
\*---------------------------------------------------------------------------*/
FoamFile
{
    format      ascii;
    class       volScalarField;
    location    "5.5";
    object      epsilon;
}
// * * * * * * * * * * * * * * * * * * * * * * * * * * * * * * * * * * * * * //

dimensions      [0 2 -3 0 0 0 0];

internalField   nonuniform List<scalar> 
1600
(
2.20219e-05
8.01064e-05
0.000159699
0.000170481
0.000160699
0.000166523
0.00021008
0.000334389
0.000473255
0.000622332
0.000970418
0.0012939
0.00147014
0.00162954
0.00187931
0.00220798
0.00254434
0.00290348
0.00327826
0.00367887
0.00411531
0.00459161
0.00512931
0.00573868
0.00646411
0.00714209
0.00781627
0.00840336
0.00890584
0.00917796
0.00928511
0.00907652
0.00828533
0.00694597
0.0051006
0.00291433
0.00137016
0.000555335
0.000171281
3.4597e-05
0.000106288
0.00013494
0.000173177
0.000171681
0.000172689
0.000207284
0.000345361
0.000693654
0.00120896
0.00190379
0.00341037
0.00445616
0.00466945
0.00449467
0.0042299
0.00409113
0.00400529
0.00397319
0.00397273
0.00405707
0.00418379
0.0043669
0.00457781
0.00483036
0.00513841
0.00551551
0.00593933
0.00642736
0.00691888
0.00733813
0.00752962
0.00756047
0.00705011
0.00608048
0.00445665
0.00249866
0.0010132
0.000427945
0.00014994
6.13128e-05
0.000317811
0.000342569
0.00036257
0.000357208
0.000409696
0.000662133
0.00136342
0.00270272
0.00451954
0.00540404
0.0054861
0.00474258
0.00433874
0.00389185
0.00352025
0.00327915
0.00307916
0.00295159
0.00288254
0.00285487
0.00284999
0.00289314
0.00298571
0.00312184
0.00329443
0.00350249
0.00375249
0.00404886
0.00439421
0.00480124
0.005274
0.00570211
0.00589941
0.00581049
0.00504384
0.00332597
0.00103197
0.000274631
9.55529e-05
5.08618e-05
0.000734799
0.000675548
0.000689587
0.000758059
0.00109396
0.0020519
0.00380917
0.00525397
0.00566987
0.00526635
0.00468811
0.00368046
0.00313209
0.00267473
0.00245529
0.00227024
0.00217174
0.00212115
0.0021023
0.00210109
0.00214208
0.00219685
0.00227661
0.00237288
0.00249226
0.00263346
0.00280417
0.00300759
0.00324872
0.00353006
0.00385218
0.00422417
0.00469406
0.00517894
0.00536358
0.00492062
0.00242062
0.000412549
8.31286e-05
3.67958e-05
0.00140464
0.00115765
0.00125189
0.00158304
0.00247924
0.00406029
0.00522811
0.00551512
0.00515393
0.00409449
0.0030574
0.00254045
0.00218682
0.00196255
0.0018506
0.00178564
0.00176184
0.00175807
0.001785
0.00182287
0.0018751
0.00193192
0.00200017
0.00207806
0.00217248
0.00228655
0.00242848
0.00260268
0.00281269
0.00305832
0.00333664
0.00364449
0.0039904
0.00442977
0.00506491
0.00535426
0.00476091
0.00134978
0.000167794
4.54854e-05
0.00237705
0.00184006
0.00210079
0.00274989
0.00395599
0.00494656
0.00521551
0.00494828
0.00371353
0.00268303
0.00216925
0.00186996
0.00168989
0.00160488
0.00157058
0.00156164
0.00157601
0.00160623
0.00164302
0.00168312
0.00172821
0.00177789
0.00183728
0.00190838
0.00199687
0.00210722
0.00224568
0.00241704
0.00262567
0.00287236
0.00315432
0.00346548
0.00378447
0.00411743
0.00453549
0.00507081
0.00528565
0.00360688
0.000526188
9.10865e-05
0.00363403
0.00271483
0.00311101
0.00387102
0.00466109
0.00492097
0.00473934
0.00358903
0.00247715
0.00194135
0.00166606
0.00151534
0.00144643
0.00142184
0.001417
0.00142779
0.00144613
0.00146462
0.00148365
0.00150429
0.00152933
0.0015629
0.00160937
0.00167345
0.00176069
0.00187719
0.00202948
0.00222353
0.00246348
0.00274876
0.00307071
0.00341114
0.00375753
0.00406933
0.00439936
0.00480509
0.00508924
0.00491505
0.00135967
0.000210903
0.00499033
0.00367304
0.0040475
0.00454063
0.00474058
0.00458503
0.0036425
0.00242253
0.00182266
0.00153476
0.00139338
0.00132726
0.00130111
0.00129252
0.00128997
0.00128899
0.00128416
0.00127628
0.00126965
0.00126692
0.0012691
0.00128582
0.00131851
0.00137227
0.00145304
0.00156748
0.0017241
0.00193231
0.00220146
0.0025371
0.0029345
0.00336983
0.00379617
0.0041968
0.00446104
0.00475352
0.00505166
0.0051488
0.00296913
0.000526144
0.00617179
0.00455209
0.00474837
0.0048391
0.00456443
0.00380644
0.00256099
0.00180339
0.00146489
0.00130718
0.00123324
0.00119928
0.00118307
0.00116763
0.00114743
0.00112143
0.0010905
0.00105922
0.0010317
0.00101377
0.00100656
0.00100667
0.00103051
0.00107335
0.00114327
0.0012461
0.00139156
0.00159194
0.00186254
0.00221926
0.00267224
0.00321307
0.00379697
0.00433527
0.00473819
0.00494057
0.00517873
0.00529677
0.00457496
0.0014242
0.00704305
0.00521383
0.00515551
0.00481213
0.0041093
0.00291055
0.00191044
0.00145639
0.00125472
0.00116167
0.00111698
0.00109189
0.00106576
0.00103167
0.00098943
0.00094222
0.000894221
0.000850351
0.000813975
0.000788657
0.000776709
0.000773582
0.00078861
0.000823316
0.000880864
0.000967747
0.00109307
0.00127025
0.00151791
0.00185997
0.00232204
0.00291992
0.00363552
0.00438374
0.00500234
0.00527943
0.00541923
0.00548844
0.00515084
0.00256594
0.00765902
0.00564224
0.00534455
0.00464477
0.00346863
0.00221123
0.00153891
0.00124602
0.00111552
0.00105374
0.00101936
0.000986055
0.000943451
0.000891126
0.000832994
0.000774366
0.000719882
0.000673154
0.000636104
0.000610614
0.000598365
0.000594694
0.000604889
0.000632787
0.000679218
0.000750156
0.000853682
0.00100263
0.00121636
0.00152297
0.00195949
0.00256541
0.00336088
0.00430022
0.00520964
0.00566624
0.00582533
0.00585619
0.00557285
0.00370217
0.00799928
0.0058408
0.00530559
0.00428986
0.00284859
0.00178092
0.00130849
0.00110418
0.00101115
0.000964667
0.000926561
0.000880245
0.000822919
0.000758516
0.000692983
0.000631665
0.000578093
0.000534186
0.000500536
0.000477809
0.000466846
0.000463457
0.000470908
0.000493137
0.00053036
0.000587474
0.000671361
0.000793294
0.000971322
0.00123391
0.00162372
0.00219772
0.00301335
0.00408277
0.00528039
0.00606459
0.00628276
0.00626356
0.00595561
0.00463004
0.00798765
0.00583152
0.00517125
0.00386688
0.00234332
0.00150623
0.00115234
0.000999248
0.000927712
0.000884198
0.000837425
0.000779382
0.000712381
0.000642667
0.000576385
0.000517714
0.000468644
0.000429673
0.000400467
0.000380888
0.000371383
0.000368391
0.000373949
0.000391625
0.000421575
0.000467662
0.000535605
0.000634881
0.000781248
0.00100104
0.00133738
0.00185634
0.00264457
0.00377845
0.00523796
0.00645944
0.00684946
0.00681293
0.00631113
0.00550359
0.0078813
0.00574755
0.00490398
0.00343553
0.00198869
0.00131906
0.00103909
0.000916422
0.000856683
0.000810167
0.000754719
0.000688515
0.000616955
0.000546947
0.00048374
0.000430007
0.000386389
0.000352433
0.000327284
0.000310331
0.000301996
0.000299298
0.000303396
0.000317501
0.000341843
0.000379461
0.000435064
0.000516475
0.000637001
0.000819825
0.00110547
0.00156219
0.00229313
0.0034181
0.00499248
0.00670839
0.00742647
0.00743156
0.00679827
0.00631548
0.00762989
0.00555479
0.00458423
0.00305147
0.00174672
0.00118472
0.000952215
0.00084905
0.000794752
0.000743403
0.000681282
0.000610583
0.000538247
0.000470807
0.000412221
0.000363815
0.000325274
0.000295604
0.000273719
0.000258751
0.000251241
0.000248716
0.000251663
0.000262994
0.00028304
0.000314234
0.000360471
0.000428183
0.000528406
0.000680881
0.000921923
0.00131794
0.00198237
0.00307518
0.00472423
0.00681013
0.00804409
0.00812544
0.00733902
0.00711154
0.00720583
0.00530553
0.0042565
0.0027393
0.00157389
0.00108482
0.000883852
0.000793846
0.000740943
0.000685123
0.000618705
0.00054635
0.000475486
0.000411796
0.000357992
0.00031439
0.000280081
0.000253803
0.000234394
0.000220973
0.000213962
0.000211514
0.000213566
0.000222734
0.000239463
0.000265768
0.00030493
0.000362312
0.000447068
0.000575736
0.000779723
0.00112003
0.00171152
0.00274428
0.00443969
0.00681778
0.00862531
0.00891124
0.00795701
0.00788775
0.00670981
0.00503474
0.00394244
0.00249334
0.00144718
0.00100903
0.000829638
0.000748343
0.000695069
0.000635956
0.000567287
0.000495122
0.000426769
0.000366972
0.00031744
0.000277809
0.00024684
0.000223162
0.000205615
0.000193359
0.00018664
0.000184193
0.000185559
0.000193024
0.000207151
0.000229669
0.000263416
0.000312971
0.000386035
0.000496458
0.000670975
0.000963788
0.00148493
0.00243869
0.00411588
0.00668622
0.00915242
0.00976054
0.00862982
0.00866087
0.0061256
0.00477839
0.00366173
0.00230593
0.00135573
0.000952154
0.000786888
0.000711049
0.000656916
0.000595829
0.00052644
0.0004555
0.000389921
0.000333629
0.000287616
0.000251103
0.000222685
0.000200964
0.000184813
0.000173429
0.000166859
0.000164345
0.000165191
0.000171307
0.000183358
0.000202886
0.00023241
0.000275961
0.000340176
0.000436788
0.00058846
0.000842391
0.00130046
0.00217178
0.00380389
0.0065012
0.00959637
0.010663
0.00941134
0.00943094
0.00554419
0.00452768
0.00341794
0.00216667
0.00128988
0.000908857
0.000753325
0.000680854
0.000626042
0.000564169
0.000495137
0.000425911
0.00036294
0.00030955
0.000266278
0.000232116
0.00020559
0.000185315
0.000170196
0.000159462
0.000152951
0.000150295
0.000150742
0.000155785
0.000166166
0.000183299
0.000209468
0.000248328
0.000305773
0.000391952
0.0005262
0.00074911
0.00115233
0.00194041
0.00350137
0.00627802
0.00995169
0.0115947
0.0102751
0.0101973
0.00488494
0.00430512
0.00321691
0.00206602
0.00124871
0.00087999
0.000727864
0.000656827
0.000601726
0.000540071
0.000472153
0.000404816
0.000344143
0.000293041
0.000251795
0.00021932
0.00019414
0.000174897
0.000160521
0.000150259
0.000143766
0.000140885
0.000141008
0.000145181
0.000154222
0.000169438
0.00019291
0.000228046
0.000280249
0.000358536
0.00047971
0.000678629
0.00103645
0.00174766
0.00322592
0.00605344
0.0101971
0.0125543
0.0112566
0.0109654
0.0043556
0.00411394
0.00305603
0.0019994
0.00122436
0.000858502
0.000709161
0.000638187
0.000583214
0.000522597
0.000456365
0.000391071
0.000332288
0.000282807
0.000242952
0.00021163
0.000187372
0.000168831
0.000154952
0.000144996
0.00013853
0.000135367
0.000135324
0.000138837
0.000146784
0.000160362
0.000181596
0.000213753
0.000261855
0.000334119
0.000445572
0.000626252
0.000947074
0.00158832
0.00297369
0.00581875
0.0103697
0.0135264
0.0123511
0.0117258
0.00390918
0.00393759
0.00294771
0.00195529
0.00122629
0.000855125
0.000696453
0.000624116
0.000569454
0.00051059
0.000446583
0.000383074
0.000326052
0.000278184
0.000239433
0.000208835
0.000185052
0.000166814
0.000153103
0.000143191
0.000136638
0.00013326
0.000133161
0.000136214
0.000143396
0.000155914
0.000175494
0.000205099
0.000249534
0.000317107
0.000421458
0.00058874
0.000880592
0.00146139
0.00275054
0.00556918
0.0104682
0.0145024
0.0135792
0.0124857
0.00351549
0.00378956
0.0028797
0.00194884
0.00123904
0.000860481
0.000692863
0.00061452
0.00056008
0.000503351
0.00044178
0.000381503
0.000326319
0.000278961
0.000240415
0.00020989
0.000186121
0.00016787
0.000154131
0.000144174
0.000137537
0.000134019
0.000133752
0.000136202
0.000142699
0.000154563
0.000173245
0.000201286
0.000243422
0.000307542
0.000406447
0.00056364
0.00083328
0.00136341
0.00255826
0.00532291
0.0105129
0.0155106
0.0149094
0.0132318
0.00315955
0.00367211
0.00285045
0.0019603
0.00126894
0.000875793
0.000695738
0.000610021
0.000553711
0.000499417
0.000441986
0.000383247
0.000329107
0.000282464
0.000244167
0.000213663
0.000189828
0.000171497
0.000157691
0.000147687
0.000141017
0.000137485
0.000137244
0.000139365
0.000145195
0.000156243
0.000173703
0.000200518
0.000241363
0.000303654
0.00039944
0.00055114
0.00080402
0.00129172
0.00239762
0.00507819
0.0105236
0.0165177
0.0163633
0.0139679
0.00282735
0.00357842
0.00285668
0.00199258
0.00132044
0.000907606
0.000705414
0.000611345
0.000552329
0.000499651
0.000444076
0.000387954
0.000335678
0.00029008
0.000252107
0.00022153
0.000197468
0.000178883
0.000164845
0.000154634
0.000147772
0.000144064
0.000143833
0.000145791
0.000151261
0.000161942
0.000178809
0.000204477
0.000243396
0.000303323
0.00039744
0.000546619
0.000790397
0.00124191
0.00226976
0.0048477
0.0104772
0.0175346
0.0179328
0.0146806
0.00251521
0.00351114
0.00288091
0.00205399
0.00139011
0.000957016
0.000726506
0.000617209
0.00055396
0.000501501
0.000448911
0.000396182
0.000346073
0.000301527
0.000263852
0.000233126
0.000208718
0.000189748
0.000175366
0.000164881
0.000157811
0.000153948
0.000153805
0.000155727
0.00016107
0.000171658
0.000188302
0.00021353
0.000251724
0.000310499
0.000402557
0.000548496
0.000786703
0.00121678
0.00217179
0.00463969
0.0103932
0.0185224
0.019634
0.0153703
0.0022123
0.00344887
0.00292975
0.00214181
0.00148372
0.00102666
0.00076406
0.000631203
0.000559416
0.000505918
0.000456106
0.000406548
0.000358988
0.000315934
0.000278877
0.000248201
0.000223552
0.000204244
0.00018954
0.000178805
0.000171566
0.000167614
0.00016762
0.000169625
0.000175068
0.000185796
0.000202523
0.000227718
0.000265712
0.000324183
0.000416207
0.000562553
0.000796528
0.00120809
0.00210089
0.0044566
0.0102974
0.0194701
0.0214436
0.0160243
0.00192123
0.00339835
0.00300714
0.00223954
0.00159608
0.00111837
0.000821035
0.000659551
0.0005718
0.000514336
0.000465413
0.000418607
0.000373806
0.000332725
0.00029678
0.000266559
0.00024197
0.000222538
0.000207669
0.000196815
0.00018952
0.000185644
0.000185821
0.000188068
0.00019384
0.000204923
0.000222021
0.000247585
0.000285943
0.000344853
0.000437629
0.000585625
0.000820759
0.0012155
0.00206519
0.00429736
0.0101715
0.0203922
0.0233408
0.0166445
0.00163095
0.003308
0.00306033
0.00237229
0.00172993
0.0012343
0.000901618
0.000706247
0.000596721
0.000529343
0.000478189
0.000432725
0.000390337
0.000351473
0.000317119
0.000287873
0.00026381
0.000244642
0.000229922
0.000219215
0.000212071
0.000208541
0.000208969
0.00021161
0.000217955
0.000229607
0.000247354
0.000273692
0.000313007
0.000373211
0.000467829
0.000618955
0.000858113
0.0012457
0.0020534
0.00415996
0.00999587
0.0212563
0.0252792
0.0172197
0.00137353
0.00320183
0.00308577
0.00252191
0.00188207
0.00137534
0.00101095
0.000778259
0.00063989
0.000555739
0.000497417
0.000450401
0.000409072
0.000372075
0.000339524
0.000311714
0.000288707
0.000270316
0.000256194
0.000246041
0.000239346
0.00023657
0.000237364
0.000240575
0.000247768
0.000260222
0.000278919
0.000306479
0.000347416
0.0004099
0.000507575
0.00066336
0.00090931
0.00129641
0.00206721
0.00406406
0.00980493
0.022026
0.0271778
0.0177568
0.00115436
0.00298956
0.00309276
0.00267236
0.00204475
0.0015371
0.00115052
0.000882688
0.000710596
0.000602255
0.000530038
0.000476576
0.000433193
0.000396353
0.000364863
0.00033835
0.000316589
0.000299334
0.000286196
0.000277042
0.000271087
0.000269573
0.000270868
0.00027485
0.000283217
0.000296766
0.000316802
0.00034618
0.000389587
0.000455617
0.000557886
0.000720337
0.000975769
0.00137423
0.0021197
0.00402289
0.00960485
0.0226639
0.0289448
0.0182529
0.000962077
0.00259699
0.00310627
0.00280963
0.00221248
0.0017163
0.001321
0.00102584
0.000819312
0.000680247
0.00058599
0.000519047
0.00046844
0.000428309
0.000395775
0.000369407
0.000348353
0.000332086
0.000319986
0.00031201
0.000307024
0.000307057
0.000308997
0.000314031
0.000323919
0.000338997
0.00036097
0.000393098
0.000440213
0.000511652
0.000620698
0.000793053
0.00106149
0.00148082
0.00221421
0.00402119
0.00948694
0.0231825
0.0304551
0.0187256
0.000789177
0.00203784
0.00304901
0.00285978
0.00237226
0.00190196
0.0015186
0.00121311
0.000980299
0.000809433
0.000686237
0.000596917
0.00053081
0.000480701
0.000442067
0.000412213
0.000389359
0.000372368
0.000360266
0.000352593
0.000348664
0.000349294
0.000352191
0.000358744
0.000370333
0.000387697
0.000412658
0.000449198
0.000502096
0.000582159
0.000701651
0.000890019
0.00117781
0.0016342
0.00238338
0.00415985
0.0094598
0.0236293
0.0316151
0.0192005
0.000690426
0.00149727
0.00284259
0.00281054
0.00252678
0.00209784
0.00174159
0.00144414
0.00119912
0.001003
0.000849728
0.000731782
0.000641712
0.000573101
0.00052114
0.000481797
0.000452437
0.000431064
0.000416131
0.000406746
0.000402052
0.000402837
0.000406352
0.000414287
0.000428208
0.000449348
0.000479419
0.000523773
0.000586601
0.000681888
0.000819369
0.00103696
0.00135837
0.00188298
0.00269185
0.00451795
0.0097414
0.0242274
0.0322597
0.0196315
0.00070177
0.00117302
0.00238698
0.00266357
0.00255569
0.00229467
0.00200394
0.00174265
0.00150779
0.00130034
0.00112265
0.000974676
0.000853844
0.000756704
0.000679656
0.000619922
0.000573829
0.000540419
0.00051656
0.000501333
0.000491793
0.000491999
0.000495636
0.000504943
0.000522999
0.000551635
0.000592104
0.000652683
0.000735761
0.000862436
0.00103668
0.00131534
0.00170634
0.00236904
0.00333692
0.0053969
0.0107009
0.0252418
0.0325233
0.0197901
0.000944985
0.00100788
0.0018342
0.00232746
0.00253117
0.00246517
0.00230284
0.00210346
0.00190119
0.001703
0.00151456
0.00134188
0.00119208
0.00106728
0.000964518
0.00088186
0.000816635
0.000766823
0.00072991
0.000706377
0.000692338
0.00069334
0.000700741
0.000718651
0.000751579
0.00080121
0.000869895
0.000972486
0.00110774
0.00131208
0.00157823
0.00200317
0.00256301
0.00353428
0.00486304
0.00749502
0.0130789
0.0271323
0.0325229
0.0198079
0.00143147
0.00110986
0.001694
0.0023181
0.00268173
0.00285503
0.0028523
0.00277574
0.00261943
0.00243727
0.00224693
0.00205924
0.00188349
0.0017273
0.00159428
0.00148591
0.00140141
0.00134139
0.00130041
0.00128438
0.00128974
0.00131064
0.00135564
0.00142884
0.00152899
0.00166707
0.00184521
0.00207843
0.00238167
0.00281067
0.00335069
0.00416366
0.0051863
0.00687833
0.00899957
0.012934
0.0186066
0.0306532
0.0324338
0.0192718
0.00233897
0.00164998
0.00237124
0.00319537
0.00382646
0.00428657
0.00450358
0.00455667
0.00449231
0.00434477
0.00415933
0.00396919
0.00379015
0.00363864
0.00352169
0.00344233
0.00341033
0.00342441
0.0034708
0.00357216
0.00372608
0.00393618
0.00419982
0.00453843
0.00495192
0.0054591
0.00607965
0.00682776
0.00775433
0.00882213
0.0102155
0.0120369
0.0143675
0.0175426
0.0212882
0.0269837
0.0320397
0.0372666
0.0336097
0.0182231
0.00416312
0.00398833
0.00701722
0.00957851
0.0110438
0.0119077
0.0123127
0.0124405
0.0123954
0.012261
0.0120618
0.0119076
0.011809
0.0118282
0.0119146
0.0121166
0.0124316
0.0129009
0.0134496
0.0141477
0.01495
0.0159266
0.0170377
0.0183351
0.0198302
0.0215038
0.0234881
0.0256047
0.0282244
0.0308654
0.0343153
0.0373744
0.0418132
0.0450065
0.0501731
0.0519233
0.0504029
0.0439187
0.0341387
0.0159972
0.00282236
0.00444534
0.00584084
0.00736752
0.00873507
0.00995632
0.010963
0.0118006
0.0124025
0.0128214
0.0130647
0.0132185
0.0132356
0.0132114
0.0131555
0.0130525
0.0129486
0.0128301
0.0127349
0.0126343
0.0125767
0.0125181
0.0125132
0.0125279
0.0125771
0.0126478
0.0128052
0.0129309
0.013203
0.0133831
0.0137752
0.0140041
0.0145248
0.0149048
0.0157575
0.0162574
0.017129
0.0171524
0.0165622
0.0138416
)
;

boundaryField
{
    movingWall
    {
        type            epsilonWallFunction;
        value           nonuniform List<scalar> 
40
(
0.00282236
0.00444534
0.00584084
0.00736752
0.00873507
0.00995632
0.010963
0.0118006
0.0124025
0.0128214
0.0130647
0.0132185
0.0132356
0.0132114
0.0131555
0.0130525
0.0129486
0.0128301
0.0127349
0.0126343
0.0125767
0.0125181
0.0125132
0.0125279
0.0125771
0.0126478
0.0128052
0.0129309
0.013203
0.0133831
0.0137752
0.0140041
0.0145248
0.0149048
0.0157575
0.0162574
0.017129
0.0171524
0.0165622
0.0138416
)
;
    }
    fixedWalls
    {
        type            epsilonWallFunction;
        value           nonuniform List<scalar> 
120
(
2.20219e-05
0.000106288
0.000317811
0.000734799
0.00140464
0.00237705
0.00363403
0.00499033
0.00617179
0.00704305
0.00765902
0.00799928
0.00798765
0.0078813
0.00762989
0.00720583
0.00670981
0.0061256
0.00554419
0.00488494
0.0043556
0.00390918
0.00351549
0.00315955
0.00282735
0.00251521
0.0022123
0.00192123
0.00163095
0.00137353
0.00115436
0.000962077
0.000789177
0.000690426
0.00070177
0.000944985
0.00143147
0.00233897
0.00416312
0.00282236
3.4597e-05
6.13128e-05
5.08618e-05
3.67958e-05
4.54854e-05
9.10865e-05
0.000210903
0.000526144
0.0014242
0.00256594
0.00370217
0.00463004
0.00550359
0.00631548
0.00711154
0.00788775
0.00866087
0.00943094
0.0101973
0.0109654
0.0117258
0.0124857
0.0132318
0.0139679
0.0146806
0.0153703
0.0160243
0.0166445
0.0172197
0.0177568
0.0182529
0.0187256
0.0192005
0.0196315
0.0197901
0.0198079
0.0192718
0.0182231
0.0159972
0.0138416
2.20219e-05
8.01064e-05
0.000159699
0.000170481
0.000160699
0.000166523
0.00021008
0.000334389
0.000473255
0.000622332
0.000970418
0.0012939
0.00147014
0.00162954
0.00187931
0.00220798
0.00254434
0.00290348
0.00327826
0.00367887
0.00411531
0.00459161
0.00512931
0.00573868
0.00646411
0.00714209
0.00781627
0.00840336
0.00890584
0.00917796
0.00928511
0.00907652
0.00828533
0.00694597
0.0051006
0.00291433
0.00137016
0.000555335
0.000171281
3.4597e-05
)
;
    }
    frontAndBack
    {
        type            empty;
    }
}


// ************************************************************************* //
