/*--------------------------------*- C++ -*----------------------------------*\
  =========                 |
  \\      /  F ield         | OpenFOAM: The Open Source CFD Toolbox
   \\    /   O peration     | Website:  https://openfoam.org
    \\  /    A nd           | Version:  12
     \\/     M anipulation  |
\*---------------------------------------------------------------------------*/
FoamFile
{
    format      ascii;
    class       volScalarField;
    location    "5.5";
    object      k;
}
// * * * * * * * * * * * * * * * * * * * * * * * * * * * * * * * * * * * * * //

dimensions      [0 2 -2 0 0 0 0];

internalField   nonuniform List<scalar> 
1600
(
1.72141e-06
6.26031e-06
1.24795e-05
1.33187e-05
1.25526e-05
1.30056e-05
1.6407e-05
2.61228e-05
3.69844e-05
4.8647e-05
7.58763e-05
0.000101162
0.000114935
0.000127398
0.000146931
0.000172633
0.000198928
0.000227007
0.000256304
0.000287622
0.000321738
0.000358972
0.000401002
0.000448636
0.000505339
0.000558313
0.000611002
0.000656875
0.000696139
0.000717398
0.000725769
0.000709456
0.000647629
0.000542952
0.000398732
0.000227842
0.000107132
4.34261e-05
1.3395e-05
2.70584e-06
8.30812e-06
4.11834e-05
8.08995e-05
9.0964e-05
9.13666e-05
9.82767e-05
0.000133064
0.000213213
0.000286908
0.000364585
0.000547911
0.000669821
0.000709754
0.0007204
0.000728653
0.000756184
0.000785061
0.000820595
0.000859856
0.000902785
0.000951922
0.00100339
0.00105969
0.0011144
0.00116774
0.00122864
0.00129125
0.00135591
0.00141191
0.00144348
0.00145432
0.00141576
0.00130773
0.00112006
0.000862478
0.000508344
0.000221513
9.00085e-05
3.0952e-05
4.79391e-06
2.48427e-05
0.000107488
0.000175233
0.000193886
0.000215805
0.000279602
0.000439972
0.000689772
0.000912876
0.00100442
0.000992128
0.000893511
0.000846222
0.000828499
0.000825262
0.000833752
0.000847893
0.000866522
0.000889539
0.000915913
0.000945024
0.000974343
0.00100462
0.00103706
0.00107252
0.00111021
0.00114972
0.00118997
0.00122856
0.00126333
0.00128064
0.00128624
0.00125574
0.0011343
0.000945827
0.000579533
0.000207244
7.43867e-05
2.79709e-05
3.97629e-06
5.74373e-05
0.000221963
0.000317644
0.000361988
0.000451603
0.000646913
0.000928404
0.00110013
0.00113505
0.00102441
0.00094229
0.000861903
0.000830009
0.000818765
0.000816323
0.00082411
0.000835474
0.000850448
0.000867144
0.000885254
0.000903999
0.000924303
0.000946612
0.000969549
0.000994132
0.00101964
0.00104664
0.00107452
0.00110101
0.0011234
0.00113752
0.00114342
0.00114222
0.00110859
0.00103667
0.000849256
0.000343646
8.25433e-05
2.1898e-05
2.87603e-06
0.000109794
0.000390069
0.000519191
0.000607234
0.000774729
0.00102754
0.00116818
0.00118701
0.00108149
0.000933331
0.000847887
0.000809586
0.000795146
0.000791331
0.000793543
0.000807847
0.000823081
0.000842225
0.000861341
0.000881347
0.000900547
0.000919652
0.000938237
0.000957229
0.000977455
0.000999506
0.00102384
0.0010497
0.00107518
0.00109506
0.00110648
0.00111125
0.0011113
0.00109022
0.00105701
0.00097146
0.000712834
0.000195736
3.26027e-05
3.55487e-06
0.000185796
0.000600223
0.000761851
0.000882799
0.0010673
0.00118676
0.00120482
0.00111571
0.000928197
0.000830499
0.000787001
0.000769934
0.000765443
0.000770145
0.000785789
0.000804987
0.000824835
0.000845934
0.000865585
0.000884496
0.00090192
0.000918832
0.00093558
0.000953156
0.000973198
0.000996666
0.00102436
0.00105636
0.00109285
0.00113137
0.00115022
0.00115425
0.00115151
0.00112665
0.00107748
0.00100862
0.000862937
0.000406119
7.37017e-05
7.11879e-06
0.000284042
0.0008175
0.00100575
0.00111306
0.0011962
0.00121338
0.00113869
0.000943767
0.000819847
0.000768055
0.000748259
0.000743105
0.000747977
0.000765186
0.000784089
0.000803682
0.000822473
0.000839474
0.000853582
0.000865654
0.000875966
0.000886557
0.00089929
0.000916456
0.00093845
0.000966734
0.00100212
0.00104481
0.00109374
0.00114617
0.00120168
0.00123699
0.0012434
0.00123291
0.00118019
0.00107423
0.000924545
0.000653568
0.000152583
1.64832e-05
0.000390048
0.00103286
0.00120163
0.00124181
0.00124461
0.00116442
0.000984892
0.000823848
0.000755652
0.000730393
0.000723696
0.000726302
0.000742998
0.000761031
0.000778226
0.000793305
0.000803805
0.000808876
0.0008108
0.000811726
0.000814155
0.000819931
0.000830527
0.000846639
0.000869776
0.000901374
0.000942831
0.000995199
0.00105858
0.00113092
0.0012064
0.0012776
0.00131664
0.00132309
0.00130526
0.00121878
0.00103757
0.000754977
0.000261854
4.11245e-05
0.000482411
0.00120675
0.00133815
0.00132511
0.00121867
0.00105067
0.000849913
0.000754515
0.000717491
0.000706715
0.000705959
0.000719219
0.000736408
0.000750633
0.000758389
0.000760391
0.000756045
0.00074836
0.000742859
0.000739076
0.000737845
0.000740416
0.000749378
0.000764472
0.000787519
0.000819827
0.000863252
0.000919777
0.000991273
0.00107842
0.00117869
0.00128299
0.00136656
0.00140107
0.00140168
0.00134884
0.00119697
0.000917484
0.000478604
0.000111318
0.000550518
0.00132617
0.00143047
0.0013329
0.00115027
0.000919671
0.000772758
0.000712847
0.000692632
0.000688736
0.000695345
0.00071115
0.000720389
0.00072306
0.000717309
0.000707154
0.000694398
0.000681935
0.000672087
0.000665934
0.000663562
0.000664259
0.000672665
0.000686998
0.000709214
0.000740394
0.000782501
0.000837979
0.0009099
0.00100139
0.00111408
0.00124486
0.00138062
0.00147135
0.00149501
0.00147091
0.00133437
0.0010402
0.000586126
0.00020054
0.000598673
0.00140466
0.00148527
0.00131229
0.00105074
0.000827471
0.00072461
0.000685612
0.000674894
0.000674541
0.000685649
0.000691142
0.000691194
0.000682221
0.000667426
0.000650521
0.000633695
0.000619066
0.000607777
0.000601249
0.000598736
0.000599246
0.000607435
0.00062126
0.000642437
0.00067194
0.000711591
0.000763891
0.000832391
0.000921643
0.00103634
0.00117852
0.00134168
0.0015004
0.00157915
0.00158813
0.0014963
0.00121421
0.000730018
0.000289309
0.000625275
0.00143714
0.00149157
0.00126465
0.00095581
0.000769207
0.000692368
0.000665375
0.000659182
0.00066118
0.00066549
0.000664711
0.000654667
0.000637614
0.000617514
0.000597509
0.000579427
0.000564541
0.000553412
0.000547277
0.000544962
0.000545748
0.000553547
0.000566768
0.000586774
0.00061452
0.00065161
0.000700356
0.000764267
0.000848511
0.000959988
0.00110588
0.00128874
0.00149612
0.00164271
0.00168207
0.00162568
0.00135382
0.00084927
0.000361791
0.000624369
0.00143476
0.00147788
0.00119987
0.000881027
0.00072834
0.00066781
0.000647689
0.000643419
0.000643455
0.000642749
0.000633729
0.0006164
0.000594618
0.000572129
0.000551356
0.000533523
0.000519248
0.000508738
0.000502944
0.000500757
0.000501512
0.00050858
0.000520916
0.00053963
0.000565691
0.00060052
0.000646139
0.00070566
0.000783969
0.000888451
0.00102883
0.00121391
0.00144205
0.00167145
0.00177529
0.00176454
0.00151659
0.000971556
0.000430027
0.000616058
0.00141839
0.00144428
0.00113037
0.0008288
0.00069787
0.000647683
0.000631077
0.000626312
0.000624145
0.000617599
0.000602095
0.000580222
0.000556185
0.000533141
0.000512778
0.000495746
0.000482224
0.000472208
0.000466396
0.000464117
0.000464413
0.00047043
0.000481613
0.000498926
0.000523381
0.000556299
0.000599485
0.000655662
0.000729261
0.000827597
0.000961914
0.00114621
0.0013892
0.00167424
0.00185316
0.00187881
0.00166314
0.00109291
0.000493444
0.000596411
0.00138104
0.00139268
0.00106828
0.000789873
0.000673445
0.000629756
0.000614937
0.000609445
0.000604246
0.000592497
0.000572529
0.000548186
0.000523441
0.000500774
0.000481234
0.00046504
0.000452108
0.000442332
0.00043612
0.000433422
0.000433149
0.000437861
0.000447695
0.000463507
0.000486356
0.000517534
0.000558691
0.000612178
0.000681782
0.000774046
0.000900119
0.00107672
0.00132142
0.00163393
0.00190992
0.00199132
0.00181633
0.00121529
0.000555622
0.000563265
0.00133105
0.0013349
0.00101619
0.000759426
0.000653085
0.000613669
0.000599746
0.000593418
0.000585052
0.000569277
0.000546523
0.000521063
0.000496427
0.000474478
0.000455782
0.000440269
0.000427714
0.000417975
0.000411124
0.000407746
0.000406942
0.000410268
0.000418646
0.000432885
0.000454099
0.000483614
0.00052303
0.000574473
0.000641223
0.000729032
0.000848406
0.00101714
0.00125863
0.00158487
0.00193584
0.00208543
0.00196073
0.00134057
0.000616248
0.000524492
0.00127446
0.00127473
0.000972969
0.000735134
0.000635922
0.000599398
0.000586025
0.000578723
0.000567606
0.000548995
0.000524658
0.000498862
0.000474673
0.000453469
0.00043548
0.00042046
0.000408107
0.000398248
0.00039089
0.000386684
0.000385295
0.000387328
0.000394239
0.000406869
0.000426397
0.00045422
0.000491965
0.000541641
0.00060611
0.000690275
0.000803524
0.000963579
0.00119854
0.0015339
0.00194359
0.00217287
0.00210271
0.00146609
0.000676631
0.000478823
0.00121933
0.00121671
0.000938276
0.000716164
0.000621531
0.000586968
0.000574104
0.000565749
0.000552525
0.000532083
0.000506955
0.00048122
0.00045755
0.000436982
0.000419537
0.000404867
0.000392628
0.000382634
0.000374889
0.000369879
0.000367872
0.000368791
0.000374309
0.000385346
0.000403155
0.000429231
0.000465295
0.000513367
0.000576066
0.000657574
0.000765975
0.00091777
0.00114317
0.0014804
0.00192941
0.00224701
0.00223845
0.00159937
0.000736776
0.000433373
0.00116281
0.00116198
0.000910556
0.000701515
0.000609676
0.000576354
0.000563876
0.000554657
0.000540022
0.000518544
0.000493135
0.000467637
0.000444437
0.000424361
0.000407316
0.000392904
0.00038076
0.000370683
0.000362672
0.000357005
0.000354357
0.000354379
0.000358644
0.000368163
0.000384262
0.000408542
0.000442854
0.000489337
0.00055053
0.000630061
0.000734739
0.000879278
0.00109385
0.00142498
0.00189609
0.00231573
0.00236845
0.00173365
0.000796627
0.000381838
0.00111382
0.00111324
0.000889223
0.000691859
0.000600398
0.000567455
0.000555216
0.000545433
0.000530033
0.000508142
0.000482796
0.000457607
0.000434784
0.00041506
0.000398302
0.000384092
0.000372051
0.000361962
0.000353804
0.000347754
0.000344394
0.000343777
0.000346962
0.000355085
0.000369545
0.000392031
0.000424527
0.000469383
0.000529211
0.000607286
0.000709261
0.000847817
0.00105193
0.00137399
0.00185769
0.00236541
0.00249567
0.00187614
0.000856618
0.000340457
0.00106093
0.00107001
0.000872917
0.000685457
0.000593575
0.00055998
0.0005478
0.000537819
0.000522266
0.000500492
0.000475473
0.000450641
0.000428124
0.000408643
0.000392081
0.000378031
0.000366108
0.000356074
0.000347876
0.000341655
0.000337783
0.000336617
0.000338925
0.000345811
0.000358774
0.000379549
0.000410206
0.00045338
0.000511898
0.000588876
0.00068898
0.000822685
0.00101672
0.00132711
0.00181711
0.00240154
0.00261952
0.00202144
0.000916003
0.000305557
0.00100675
0.00102958
0.000863818
0.000685713
0.000589706
0.000554089
0.000541467
0.00053155
0.000516365
0.000495157
0.000470731
0.000446329
0.000424054
0.000404725
0.000388295
0.000374385
0.000362605
0.000352691
0.000344553
0.000338289
0.000334206
0.00033279
0.000334544
0.000340404
0.000352018
0.000371009
0.000399792
0.000441271
0.000498496
0.000574614
0.000673561
0.000803541
0.000988292
0.00128551
0.00177663
0.0024203
0.00274032
0.00217462
0.00097535
0.000274779
0.000953344
0.000992692
0.000858882
0.000688482
0.000590201
0.000549875
0.000535957
0.000526209
0.000511837
0.000491646
0.000468044
0.000444191
0.000422324
0.000403194
0.000386877
0.000373082
0.00036144
0.000351667
0.000343635
0.000337404
0.00033325
0.000331726
0.00033317
0.00033839
0.000349109
0.000366827
0.000393917
0.000433441
0.000489023
0.000564415
0.000662827
0.000790004
0.000966222
0.00124893
0.00173875
0.00242842
0.00285811
0.00233227
0.00103361
0.000246952
0.000902035
0.000959843
0.00085779
0.000695477
0.000592996
0.000547876
0.000531519
0.000521653
0.000508324
0.000489479
0.000467142
0.00044429
0.000422702
0.000403664
0.000387389
0.000373648
0.000362101
0.000352469
0.000344613
0.000338564
0.000334561
0.000333089
0.000334296
0.000338854
0.000348721
0.00036562
0.000391729
0.000429918
0.000484315
0.000559133
0.000657492
0.000783078
0.000950418
0.00121696
0.00169841
0.00243044
0.00297133
0.00249657
0.0010911
0.000220981
0.000851995
0.000930627
0.000858231
0.000706747
0.000599522
0.000548673
0.000527971
0.000517546
0.000505304
0.000488127
0.000467362
0.000445247
0.000424172
0.000405371
0.000389227
0.000375626
0.000364289
0.000354958
0.000347462
0.000341787
0.000338123
0.000336958
0.000338175
0.000342467
0.00035174
0.000367597
0.00039222
0.000429196
0.000482794
0.00055724
0.000655617
0.000780549
0.00094187
0.00119071
0.00165848
0.00242319
0.00307998
0.00266572
0.00114676
0.000196578
0.000804111
0.000904707
0.000857268
0.0007246
0.000611885
0.000552014
0.000526934
0.000514158
0.000502679
0.000487292
0.000468118
0.000447387
0.000427206
0.000408877
0.000392999
0.000379639
0.000368601
0.000359627
0.000352547
0.000347318
0.000344095
0.000343431
0.000344817
0.000349172
0.000358342
0.000373699
0.000397423
0.000432991
0.000485064
0.000558657
0.000657056
0.000781138
0.000938568
0.00116979
0.00161872
0.00240655
0.00318302
0.00284076
0.00120062
0.000172898
0.000755353
0.000881603
0.000854369
0.00074652
0.000630327
0.000559765
0.000528254
0.000512384
0.000500245
0.000486306
0.000469202
0.000450212
0.000431232
0.000413673
0.000398299
0.000385338
0.000374711
0.000366224
0.000359707
0.000355091
0.000352534
0.000352563
0.000354278
0.00035901
0.000368479
0.000383673
0.000406877
0.000441589
0.000492704
0.000565702
0.000664219
0.000787925
0.000938699
0.00115433
0.00158077
0.00238406
0.00327726
0.00301703
0.0012517
0.000150142
0.000707466
0.000858794
0.000848373
0.000770893
0.000654095
0.000574357
0.000532938
0.000513193
0.000499751
0.000486332
0.000470586
0.000453328
0.000435835
0.000419393
0.000404841
0.000392549
0.000382558
0.000374752
0.000368985
0.000365171
0.000363638
0.000364211
0.000366629
0.000372186
0.000382103
0.000397457
0.000420484
0.000454654
0.000504949
0.000577178
0.00067536
0.000798616
0.000945373
0.00114385
0.00154399
0.00235332
0.003365
0.00319455
0.00130013
0.000127452
0.000654539
0.000837164
0.000838668
0.00079169
0.000684654
0.000596566
0.000543469
0.00051695
0.000501015
0.000487178
0.000472365
0.00045665
0.000440763
0.000425724
0.000412334
0.000401039
0.000391975
0.000385104
0.00038031
0.000377539
0.000377291
0.000378471
0.000381804
0.000388524
0.000399102
0.00041489
0.00043806
0.000472021
0.000521712
0.000593047
0.00069031
0.000812347
0.000954637
0.00113699
0.00150876
0.00230934
0.00344309
0.00336642
0.00134505
0.00010733
0.000605817
0.000814578
0.000829893
0.000802241
0.000719367
0.00062743
0.000563851
0.000526696
0.000505758
0.000490192
0.000475461
0.000460683
0.000446173
0.00043259
0.000420576
0.000410552
0.000402696
0.000397024
0.000393412
0.000392178
0.000392824
0.000395039
0.000399784
0.000407578
0.000419032
0.000435502
0.000459106
0.000493163
0.000542419
0.000612647
0.00070818
0.000827922
0.000965492
0.00113198
0.00147345
0.00225604
0.00350872
0.00352841
0.001387
9.02027e-05
0.000552121
0.000795701
0.000821125
0.000806097
0.000751595
0.000665314
0.000595139
0.000547072
0.000517594
0.000497953
0.000481843
0.000466878
0.000453017
0.000440514
0.00042976
0.000421048
0.000414532
0.000410166
0.000408036
0.000408315
0.000409868
0.000413466
0.000419661
0.000428602
0.000441077
0.000458423
0.000482687
0.000517068
0.000565944
0.00063471
0.000727461
0.000843419
0.000975498
0.00112725
0.00143925
0.00219592
0.003556
0.00367117
0.00142574
7.51735e-05
0.000488957
0.000786879
0.000815997
0.000807669
0.000775555
0.000706399
0.000637321
0.000582546
0.000542825
0.000515315
0.000495248
0.000478345
0.000463761
0.000451336
0.000441161
0.000433304
0.000427886
0.000424529
0.000424165
0.0004252
0.000427904
0.00043304
0.000440455
0.000450543
0.000464084
0.000482405
0.000507439
0.000542213
0.000590552
0.000657299
0.000746051
0.000856645
0.000982722
0.00112234
0.00141139
0.00213753
0.00358203
0.00378041
0.00146265
6.16558e-05
0.000417122
0.000768491
0.00081378
0.000810439
0.000793406
0.000749013
0.000687903
0.000632495
0.000586722
0.000550701
0.000522857
0.000501288
0.000483662
0.000469357
0.000458215
0.00045001
0.000444688
0.000441787
0.000442069
0.000443674
0.000447282
0.000453282
0.000461586
0.00047263
0.000487087
0.000506288
0.000531969
0.000566945
0.000614305
0.000678312
0.000761911
0.000865922
0.000986274
0.00111973
0.00139871
0.00210556
0.00359455
0.0038329
0.00149974
5.39374e-05
0.000355305
0.000726916
0.00080641
0.000812274
0.000807792
0.000789793
0.000749488
0.000700156
0.00065366
0.00061235
0.00057712
0.00054771
0.000523727
0.000504523
0.000489659
0.000478638
0.000471389
0.000466832
0.000466276
0.000467406
0.000470435
0.000476267
0.000484602
0.000495875
0.000510724
0.000530399
0.000556314
0.000591056
0.000636887
0.000697679
0.000775864
0.000873783
0.000991658
0.00112497
0.00139836
0.00209436
0.00360739
0.0038494
0.00153341
5.48232e-05
0.000331983
0.000655388
0.000785117
0.00081569
0.000827391
0.000826076
0.000813929
0.000785137
0.000744999
0.00070388
0.000664692
0.000629076
0.000597958
0.000571665
0.000550194
0.000533281
0.000520674
0.000511877
0.00050642
0.000504959
0.000506
0.000509278
0.000516106
0.000526502
0.000540968
0.00056058
0.000586424
0.000620887
0.000665588
0.000724393
0.000800021
0.00089695
0.00102224
0.00117828
0.00147746
0.0021665
0.00364218
0.00382637
0.00154578
7.38323e-05
0.000341811
0.000582769
0.000742018
0.000824846
0.000867433
0.000889253
0.000896278
0.000890081
0.000871613
0.00083805
0.000799988
0.000760922
0.000723261
0.000688602
0.000657979
0.000631843
0.000610481
0.000593687
0.000581534
0.000573695
0.000571235
0.000572541
0.000576801
0.000585799
0.000600192
0.000620574
0.000648303
0.000685468
0.000733988
0.000798057
0.00088277
0.000994438
0.00115032
0.00136066
0.00171549
0.00240592
0.00371979
0.00372478
0.00154716
0.000111871
0.000405251
0.000593448
0.000761473
0.00087824
0.000963521
0.00101854
0.00104682
0.00105118
0.00104437
0.00102509
0.000990581
0.000949823
0.000907359
0.000864968
0.000827322
0.000795023
0.000768725
0.00074762
0.000733518
0.000723077
0.000720717
0.000723134
0.000730205
0.000744616
0.000767397
0.000798247
0.000839431
0.000893791
0.000965216
0.00105853
0.00118262
0.00134452
0.00157152
0.00186424
0.002319
0.00295649
0.00386627
0.00363346
0.00150521
0.000182813
0.00056276
0.000736584
0.000934106
0.00109388
0.00122142
0.00130842
0.00135762
0.00137039
0.00136484
0.00134875
0.00131851
0.00128282
0.0012464
0.00121272
0.00118282
0.00115781
0.00114063
0.00113037
0.00113177
0.00113839
0.00115412
0.00118039
0.00121868
0.0012668
0.00132982
0.00140627
0.0015014
0.00161662
0.00175063
0.00192265
0.00212916
0.00239744
0.00271578
0.00311259
0.00360217
0.00403415
0.00419567
0.00352623
0.00142318
0.000325371
0.000958602
0.001345
0.0017108
0.00193638
0.00208514
0.00217486
0.00222582
0.00223631
0.00223163
0.00222045
0.00220753
0.00219434
0.00218849
0.0021913
0.00220102
0.00222087
0.00225451
0.00229626
0.0023543
0.00242219
0.00250744
0.0026031
0.00271808
0.00284602
0.00299279
0.00315849
0.00333922
0.00355104
0.00376755
0.00403719
0.0042741
0.00461921
0.00482936
0.00523221
0.00525735
0.00508947
0.00444068
0.00310028
0.00124925
0.000220585
0.000347399
0.000456413
0.000575653
0.000682452
0.000777841
0.000856448
0.000921888
0.000968878
0.00100158
0.00102057
0.00103257
0.00103388
0.00103197
0.00102758
0.00101952
0.00101138
0.0010021
0.00099464
0.000986774
0.000982252
0.000977664
0.000977263
0.000978407
0.000982235
0.000987754
0.00100004
0.00100985
0.0010311
0.00104518
0.00107575
0.0010937
0.00113431
0.00116399
0.00123066
0.00126967
0.00133783
0.0013396
0.00129354
0.00108109
)
;

boundaryField
{
    movingWall
    {
        type            kqRWallFunction;
        value           nonuniform List<scalar> 
40
(
0.000220585
0.000347399
0.000456413
0.000575653
0.000682452
0.000777841
0.000856448
0.000921888
0.000968878
0.00100158
0.00102057
0.00103257
0.00103388
0.00103197
0.00102758
0.00101952
0.00101138
0.0010021
0.00099464
0.000986774
0.000982252
0.000977664
0.000977263
0.000978407
0.000982235
0.000987754
0.00100004
0.00100985
0.0010311
0.00104518
0.00107575
0.0010937
0.00113431
0.00116399
0.00123066
0.00126967
0.00133783
0.0013396
0.00129354
0.00108109
)
;
    }
    fixedWalls
    {
        type            kqRWallFunction;
        value           nonuniform List<scalar> 
120
(
1.72141e-06
8.30812e-06
2.48427e-05
5.74373e-05
0.000109794
0.000185796
0.000284042
0.000390048
0.000482411
0.000550518
0.000598673
0.000625275
0.000624369
0.000616058
0.000596411
0.000563265
0.000524492
0.000478823
0.000433373
0.000381838
0.000340457
0.000305557
0.000274779
0.000246952
0.000220981
0.000196578
0.000172898
0.000150142
0.000127452
0.00010733
9.02027e-05
7.51735e-05
6.16558e-05
5.39374e-05
5.48232e-05
7.38323e-05
0.000111871
0.000182813
0.000325371
0.000220585
2.70584e-06
4.79391e-06
3.97629e-06
2.87603e-06
3.55487e-06
7.11879e-06
1.64832e-05
4.11245e-05
0.000111318
0.00020054
0.000289309
0.000361791
0.000430027
0.000493444
0.000555622
0.000616248
0.000676631
0.000736776
0.000796627
0.000856618
0.000916003
0.00097535
0.00103361
0.0010911
0.00114676
0.00120062
0.0012517
0.00130013
0.00134505
0.001387
0.00142574
0.00146265
0.00149974
0.00153341
0.00154578
0.00154716
0.00150521
0.00142318
0.00124925
0.00108109
1.72141e-06
6.26031e-06
1.24795e-05
1.33187e-05
1.25526e-05
1.30056e-05
1.6407e-05
2.61228e-05
3.69844e-05
4.8647e-05
7.58763e-05
0.000101162
0.000114935
0.000127398
0.000146931
0.000172633
0.000198928
0.000227007
0.000256304
0.000287622
0.000321738
0.000358972
0.000401002
0.000448636
0.000505339
0.000558313
0.000611002
0.000656875
0.000696139
0.000717398
0.000725769
0.000709456
0.000647629
0.000542952
0.000398732
0.000227842
0.000107132
4.34261e-05
1.3395e-05
2.70584e-06
)
;
    }
    frontAndBack
    {
        type            empty;
    }
}


// ************************************************************************* //
