/*--------------------------------*- C++ -*----------------------------------*\
  =========                 |
  \\      /  F ield         | OpenFOAM: The Open Source CFD Toolbox
   \\    /   O peration     | Website:  https://openfoam.org
    \\  /    A nd           | Version:  12
     \\/     M anipulation  |
\*---------------------------------------------------------------------------*/
FoamFile
{
    format      ascii;
    class       volScalarField;
    location    "5.5";
    object      nut;
}
// * * * * * * * * * * * * * * * * * * * * * * * * * * * * * * * * * * * * * //

dimensions      [0 2 -1 0 0 0 0];

internalField   nonuniform List<scalar> 
1600
(
1.21103e-08
4.40319e-08
8.77678e-08
9.36468e-08
8.82462e-08
9.14172e-08
1.15323e-07
1.83667e-07
2.60126e-07
3.42242e-07
5.33944e-07
7.11837e-07
8.08703e-07
8.96411e-07
1.03388e-06
1.21477e-06
1.39978e-06
1.59736e-06
1.80347e-06
2.02383e-06
2.26384e-06
2.5258e-06
2.82148e-06
3.15659e-06
3.55549e-06
3.92802e-06
4.29862e-06
4.6212e-06
4.89733e-06
5.0468e-06
5.10566e-06
4.99085e-06
4.55602e-06
3.81973e-06
2.80532e-06
1.60314e-06
7.53898e-07
3.05625e-07
9.42792e-08
1.90462e-08
5.8447e-08
1.13122e-06
3.40129e-06
4.33769e-06
4.35063e-06
4.19351e-06
4.61414e-06
5.89832e-06
6.12795e-06
6.28379e-06
7.92248e-06
9.0615e-06
9.7094e-06
1.03918e-05
1.12967e-05
1.25793e-05
1.38489e-05
1.52532e-05
1.67496e-05
1.808e-05
1.94929e-05
2.07496e-05
2.20771e-05
2.31389e-05
2.3884e-05
2.46324e-05
2.52652e-05
2.57439e-05
2.5931e-05
2.55552e-05
2.52809e-05
2.38602e-05
2.18313e-05
1.85691e-05
1.50221e-05
9.30789e-06
4.35856e-06
1.70381e-06
5.75045e-07
3.37342e-08
1.74772e-07
3.03538e-06
7.6222e-06
9.47143e-06
1.02307e-05
1.06262e-05
1.27779e-05
1.58435e-05
1.65948e-05
1.68018e-05
1.61478e-05
1.51505e-05
1.48541e-05
1.58734e-05
1.74122e-05
1.9079e-05
2.10132e-05
2.28952e-05
2.47057e-05
2.64463e-05
2.82023e-05
2.95323e-05
3.04228e-05
3.10058e-05
3.14246e-05
3.16719e-05
3.17037e-05
3.1476e-05
3.09142e-05
2.99175e-05
2.7987e-05
2.61125e-05
2.40567e-05
1.99291e-05
1.59627e-05
9.08824e-06
3.74575e-06
1.81336e-06
7.36904e-07
2.79774e-08
4.04074e-07
6.56366e-06
1.31684e-05
1.5557e-05
1.67785e-05
1.8356e-05
2.03651e-05
2.0732e-05
2.04501e-05
1.7934e-05
1.70457e-05
1.81659e-05
1.97958e-05
2.2557e-05
2.44267e-05
2.69241e-05
2.89267e-05
3.06879e-05
3.21907e-05
3.35686e-05
3.43354e-05
3.50002e-05
3.54241e-05
3.56539e-05
3.56893e-05
3.55313e-05
3.51589e-05
3.45501e-05
3.35824e-05
3.21759e-05
3.02311e-05
2.78556e-05
2.50145e-05
2.13573e-05
1.8033e-05
1.31917e-05
4.39074e-06
1.48638e-06
5.19158e-07
2.02316e-08
7.72386e-07
1.18291e-05
1.9379e-05
2.09635e-05
2.17883e-05
2.34037e-05
2.34917e-05
2.29931e-05
2.04245e-05
1.91476e-05
2.11625e-05
2.32198e-05
2.60209e-05
2.8717e-05
3.06246e-05
3.28933e-05
3.46067e-05
3.6313e-05
3.74072e-05
3.83514e-05
3.89252e-05
3.94005e-05
3.96096e-05
3.96841e-05
3.95803e-05
3.93217e-05
3.88483e-05
3.81027e-05
3.69899e-05
3.52885e-05
3.30235e-05
3.04953e-05
2.7854e-05
2.41485e-05
1.98532e-05
1.58633e-05
9.60571e-06
2.55457e-06
5.70127e-07
2.50044e-08
1.30701e-06
1.76213e-05
2.48656e-05
2.55065e-05
2.59157e-05
2.5625e-05
2.50492e-05
2.26409e-05
2.08803e-05
2.31364e-05
2.56971e-05
2.85311e-05
3.1204e-05
3.32617e-05
3.53829e-05
3.73455e-05
3.88525e-05
4.00966e-05
4.10411e-05
4.18329e-05
4.23625e-05
4.27377e-05
4.28775e-05
4.28456e-05
4.26869e-05
4.24261e-05
4.20529e-05
4.15514e-05
4.09377e-05
4.01062e-05
3.77486e-05
3.46005e-05
3.15333e-05
2.77458e-05
2.30376e-05
1.80559e-05
1.26795e-05
4.11544e-06
9.29088e-07
5.00727e-08
1.99812e-06
2.21553e-05
2.92629e-05
2.88043e-05
2.76286e-05
2.69269e-05
2.46226e-05
2.23355e-05
2.44205e-05
2.73478e-05
3.02451e-05
3.27969e-05
3.48114e-05
3.70616e-05
3.90484e-05
4.07144e-05
4.20995e-05
4.33044e-05
4.41979e-05
4.48331e-05
4.51561e-05
4.52609e-05
4.52257e-05
4.51703e-05
4.50175e-05
4.48074e-05
4.45343e-05
4.4185e-05
4.37039e-05
4.30134e-05
4.23236e-05
4.03715e-05
3.70307e-05
3.3619e-05
2.84943e-05
2.16142e-05
1.51163e-05
7.82161e-06
1.54105e-06
1.15943e-07
2.74378e-06
2.61399e-05
3.21068e-05
3.05659e-05
2.94087e-05
2.66145e-05
2.39674e-05
2.52155e-05
2.81955e-05
3.12835e-05
3.38288e-05
3.57702e-05
3.81859e-05
4.03282e-05
4.22547e-05
4.39414e-05
4.5282e-05
4.6138e-05
4.66001e-05
4.6807e-05
4.70069e-05
4.70563e-05
4.70832e-05
4.70109e-05
4.68577e-05
4.66499e-05
4.64033e-05
4.61302e-05
4.58116e-05
4.53701e-05
4.46367e-05
4.35936e-05
4.10987e-05
3.75409e-05
3.43715e-05
2.81242e-05
1.91797e-05
9.96333e-06
2.07841e-06
2.89294e-07
3.39364e-06
2.87914e-05
3.39398e-05
3.26576e-05
2.92838e-05
2.61008e-05
2.53853e-05
2.8411e-05
3.16279e-05
3.43871e-05
3.63708e-05
3.8819e-05
4.12544e-05
4.34304e-05
4.51127e-05
4.64029e-05
4.7175e-05
4.75857e-05
4.81393e-05
4.84931e-05
4.86783e-05
4.90125e-05
4.90449e-05
4.9003e-05
4.88221e-05
4.85437e-05
4.81964e-05
4.78278e-05
4.74812e-05
4.71643e-05
4.67912e-05
4.61073e-05
4.4265e-05
4.07518e-05
3.73188e-05
3.31428e-05
2.48993e-05
1.4303e-05
4.50618e-06
7.8307e-07
3.87279e-06
3.03587e-05
3.57214e-05
3.32276e-05
2.89784e-05
2.61537e-05
2.81317e-05
3.1402e-05
3.44112e-05
3.67505e-05
3.8958e-05
4.16854e-05
4.38243e-05
4.56091e-05
4.68026e-05
4.77659e-05
4.85305e-05
4.92187e-05
4.99439e-05
5.06077e-05
5.10207e-05
5.13348e-05
5.16391e-05
5.15925e-05
5.13911e-05
5.09808e-05
5.04153e-05
4.97532e-05
4.9089e-05
4.85221e-05
4.81066e-05
4.77656e-05
4.7187e-05
4.44458e-05
4.02121e-05
3.6883e-05
2.95706e-05
1.7743e-05
6.0027e-06
1.41058e-06
4.21161e-06
3.14725e-05
3.71485e-05
3.33684e-05
2.86469e-05
2.78686e-05
3.0707e-05
3.39527e-05
3.67482e-05
3.88622e-05
4.15068e-05
4.3599e-05
4.55746e-05
4.70061e-05
4.8129e-05
4.91835e-05
5.02043e-05
5.12392e-05
5.22639e-05
5.32826e-05
5.39197e-05
5.43449e-05
5.48992e-05
5.48949e-05
5.46883e-05
5.41692e-05
5.33835e-05
5.23801e-05
5.12666e-05
5.01968e-05
4.93292e-05
4.87263e-05
4.82045e-05
4.7116e-05
4.30804e-05
4.00607e-05
3.45908e-05
2.26575e-05
8.60662e-06
2.03475e-06
4.3988e-06
3.18252e-05
3.77394e-05
3.35537e-05
2.8864e-05
2.99008e-05
3.29722e-05
3.60858e-05
3.86757e-05
4.07854e-05
4.30181e-05
4.51756e-05
4.68733e-05
4.82385e-05
4.95238e-05
5.0868e-05
5.22687e-05
5.36958e-05
5.50686e-05
5.64161e-05
5.72534e-05
5.78385e-05
5.85621e-05
5.86254e-05
5.84269e-05
5.7853e-05
5.69197e-05
5.56475e-05
5.41214e-05
5.2514e-05
5.10813e-05
5.00823e-05
4.96047e-05
4.93424e-05
4.59938e-05
4.19884e-05
3.78583e-05
2.63356e-05
1.08995e-05
2.54433e-06
4.39244e-06
3.17701e-05
3.80123e-05
3.3508e-05
2.98119e-05
3.16971e-05
3.48312e-05
3.77835e-05
4.01621e-05
4.21434e-05
4.43997e-05
4.63766e-05
4.80016e-05
4.95145e-05
5.11114e-05
5.28465e-05
5.46645e-05
5.64747e-05
5.81653e-05
5.97703e-05
6.07679e-05
6.14463e-05
6.22513e-05
6.23603e-05
6.21669e-05
6.15842e-05
6.05973e-05
5.91838e-05
5.73646e-05
5.52572e-05
5.31196e-05
5.13181e-05
5.01491e-05
4.95322e-05
4.80028e-05
4.39123e-05
4.09118e-05
3.0384e-05
1.34608e-05
3.02404e-06
4.334e-06
3.15029e-05
3.82819e-05
3.34726e-05
3.10868e-05
3.32299e-05
3.63342e-05
3.91121e-05
4.12102e-05
4.32753e-05
4.54853e-05
4.7387e-05
4.91108e-05
5.09021e-05
5.28828e-05
5.50332e-05
5.72448e-05
5.93832e-05
6.13174e-05
6.30851e-05
6.41943e-05
6.48557e-05
6.56483e-05
6.57496e-05
6.55373e-05
6.49697e-05
6.40185e-05
6.26253e-05
6.07382e-05
5.83832e-05
5.57617e-05
5.33065e-05
5.15638e-05
5.08146e-05
5.05312e-05
4.60733e-05
4.27784e-05
3.34981e-05
1.58128e-05
3.46985e-06
4.19581e-06
3.0902e-05
3.80782e-05
3.36592e-05
3.21465e-05
3.44534e-05
3.74846e-05
4.0084e-05
4.20611e-05
4.42023e-05
4.63754e-05
4.83161e-05
5.02477e-05
5.23764e-05
5.47514e-05
5.72895e-05
5.98377e-05
6.22326e-05
6.4333e-05
6.61567e-05
6.72936e-05
6.78913e-05
6.85639e-05
6.85898e-05
6.83137e-05
6.77483e-05
6.68731e-05
6.5608e-05
6.38308e-05
6.14415e-05
5.849e-05
5.53281e-05
5.26339e-05
5.11037e-05
5.08605e-05
4.82079e-05
4.43659e-05
3.65412e-05
1.8112e-05
3.90695e-06
3.96263e-06
3.00539e-05
3.76777e-05
3.39272e-05
3.29792e-05
3.53853e-05
3.8347e-05
4.07794e-05
4.2774e-05
4.49638e-05
4.71418e-05
4.92026e-05
5.13908e-05
5.38606e-05
5.6598e-05
5.94687e-05
6.22867e-05
6.48715e-05
6.70805e-05
6.88415e-05
6.99334e-05
7.04643e-05
7.09325e-05
7.08191e-05
7.04286e-05
6.983e-05
6.90306e-05
6.79538e-05
6.64367e-05
6.42743e-05
6.13474e-05
5.78392e-05
5.44025e-05
5.19526e-05
5.09187e-05
4.94698e-05
4.53796e-05
3.88278e-05
2.03269e-05
4.33312e-06
3.68987e-06
2.90347e-05
3.70948e-05
3.41712e-05
3.36087e-05
3.60698e-05
3.89748e-05
4.13023e-05
4.33667e-05
4.55941e-05
4.78164e-05
5.0036e-05
5.2482e-05
5.52585e-05
5.8301e-05
6.14373e-05
6.44581e-05
6.71694e-05
6.94214e-05
7.11192e-05
7.21024e-05
7.25364e-05
7.27642e-05
7.24685e-05
7.19223e-05
7.12472e-05
7.0491e-05
6.95997e-05
6.83972e-05
6.65983e-05
6.39117e-05
6.02919e-05
5.62745e-05
5.30142e-05
5.14486e-05
5.08478e-05
4.64273e-05
4.07688e-05
2.24162e-05
4.75757e-06
3.36856e-06
2.80029e-05
3.63859e-05
3.43603e-05
3.40482e-05
3.65141e-05
3.94057e-05
4.1718e-05
4.3851e-05
4.61131e-05
4.84008e-05
5.07801e-05
5.34507e-05
5.64751e-05
5.97527e-05
6.30857e-05
6.62485e-05
6.90378e-05
7.12981e-05
7.29335e-05
7.37925e-05
7.41104e-05
7.40998e-05
7.36084e-05
7.28859e-05
7.21e-05
7.1346e-05
7.06075e-05
6.97258e-05
6.83779e-05
6.61324e-05
6.26843e-05
5.82927e-05
5.4156e-05
5.18526e-05
5.15346e-05
4.73526e-05
4.22918e-05
2.44617e-05
5.18034e-06
3.0488e-06
2.68771e-05
3.55531e-05
3.44401e-05
3.43375e-05
3.68083e-05
3.96861e-05
4.20297e-05
4.42271e-05
4.65217e-05
4.88752e-05
5.13873e-05
5.42282e-05
5.7429e-05
6.08664e-05
6.43281e-05
6.75792e-05
7.04097e-05
7.26602e-05
7.42361e-05
7.49961e-05
7.51932e-05
7.49799e-05
7.43097e-05
7.34141e-05
7.24999e-05
7.1713e-05
7.10786e-05
7.04791e-05
6.95939e-05
6.7898e-05
6.48579e-05
6.03833e-05
5.54963e-05
5.2194e-05
5.15394e-05
4.84976e-05
4.35422e-05
2.63258e-05
5.60103e-06
2.68622e-06
2.59349e-05
3.46722e-05
3.44453e-05
3.44998e-05
3.68674e-05
3.98157e-05
4.22392e-05
4.44966e-05
4.68163e-05
4.92188e-05
5.18217e-05
5.47631e-05
5.80577e-05
6.15768e-05
6.51014e-05
6.8391e-05
7.12304e-05
7.34576e-05
7.49769e-05
7.57056e-05
7.57683e-05
7.54316e-05
7.4627e-05
7.35804e-05
7.25382e-05
7.17014e-05
7.11265e-05
7.07542e-05
7.03019e-05
6.91911e-05
6.67148e-05
6.24161e-05
5.69842e-05
5.26689e-05
5.1308e-05
4.9383e-05
4.46504e-05
2.81429e-05
6.0227e-06
2.39507e-06
2.46237e-05
3.37177e-05
3.42996e-05
3.45378e-05
3.69363e-05
3.97964e-05
4.23193e-05
4.46362e-05
4.69742e-05
4.93998e-05
5.20281e-05
5.50034e-05
5.83298e-05
6.18598e-05
6.53756e-05
6.86427e-05
7.14513e-05
7.36419e-05
7.51164e-05
7.58359e-05
7.58582e-05
7.53595e-05
7.44634e-05
7.33235e-05
7.22408e-05
7.13957e-05
7.08492e-05
7.06491e-05
7.05844e-05
7.00442e-05
6.82193e-05
6.4317e-05
5.85745e-05
5.33044e-05
5.10711e-05
5.00558e-05
4.56565e-05
2.97755e-05
6.44011e-06
2.14952e-06
2.31665e-05
3.23654e-05
3.43459e-05
3.45092e-05
3.66002e-05
3.96744e-05
4.22787e-05
4.46552e-05
4.69984e-05
4.94114e-05
5.20601e-05
5.49876e-05
5.81773e-05
6.15714e-05
6.49773e-05
6.81687e-05
7.09377e-05
7.31221e-05
7.46169e-05
7.53787e-05
7.54346e-05
7.48523e-05
7.39482e-05
7.27269e-05
7.15297e-05
7.05912e-05
7.0137e-05
7.02301e-05
7.05276e-05
7.05084e-05
6.93541e-05
6.59909e-05
6.01516e-05
5.4072e-05
5.10085e-05
5.0363e-05
4.6602e-05
3.13424e-05
6.85724e-06
1.93296e-06
2.1585e-05
3.07981e-05
3.4067e-05
3.44304e-05
3.64335e-05
3.92756e-05
4.20693e-05
4.44948e-05
4.68419e-05
4.92427e-05
5.16794e-05
5.44178e-05
5.75428e-05
6.08566e-05
6.41794e-05
6.73064e-05
7.00391e-05
7.22127e-05
7.37141e-05
7.44945e-05
7.45787e-05
7.4046e-05
7.33486e-05
7.22196e-05
7.09675e-05
6.99043e-05
6.93809e-05
6.94612e-05
6.99835e-05
7.05402e-05
7.01522e-05
6.74078e-05
6.16271e-05
5.48745e-05
5.11174e-05
5.04853e-05
4.73992e-05
3.28353e-05
7.26675e-06
1.73717e-06
1.99422e-05
2.9089e-05
3.37818e-05
3.43058e-05
3.61364e-05
3.88294e-05
4.16807e-05
4.42306e-05
4.65652e-05
4.87868e-05
5.12462e-05
5.39807e-05
5.69309e-05
6.00615e-05
6.32132e-05
6.61922e-05
6.88087e-05
7.09052e-05
7.23707e-05
7.31567e-05
7.32718e-05
7.27558e-05
7.21691e-05
7.1173e-05
7.00484e-05
6.92619e-05
6.88748e-05
6.89197e-05
6.95217e-05
7.04404e-05
7.0593e-05
6.86414e-05
6.29365e-05
5.55923e-05
5.11232e-05
5.0518e-05
4.81054e-05
3.42815e-05
7.6708e-06
1.55443e-06
1.82568e-05
2.72855e-05
3.32687e-05
3.40448e-05
3.56414e-05
3.84083e-05
4.1037e-05
4.36457e-05
4.5992e-05
4.82892e-05
5.06721e-05
5.31522e-05
5.58225e-05
5.86629e-05
6.15481e-05
6.43068e-05
6.67677e-05
6.87893e-05
7.02672e-05
7.11479e-05
7.14227e-05
7.10454e-05
7.05984e-05
6.97839e-05
6.87585e-05
6.80136e-05
6.77109e-05
6.81149e-05
6.91608e-05
7.03163e-05
7.07715e-05
6.93741e-05
6.42885e-05
5.62174e-05
5.10654e-05
5.04396e-05
4.86904e-05
3.56634e-05
8.06201e-06
1.38273e-06
1.65739e-05
2.55699e-05
3.22017e-05
3.3993e-05
3.52098e-05
3.77488e-05
4.04877e-05
4.29494e-05
4.53473e-05
4.76058e-05
4.97804e-05
5.20524e-05
5.44742e-05
5.70252e-05
5.9626e-05
6.21478e-05
6.44433e-05
6.63746e-05
6.78434e-05
6.87953e-05
6.92191e-05
6.9016e-05
6.87156e-05
6.81251e-05
6.73247e-05
6.67467e-05
6.65717e-05
6.70309e-05
6.81995e-05
6.9776e-05
7.08392e-05
6.98052e-05
6.51571e-05
5.67073e-05
5.08276e-05
5.01513e-05
4.92293e-05
3.69915e-05
8.4406e-06
1.21612e-06
1.4889e-05
2.38758e-05
3.06728e-05
3.38046e-05
3.48294e-05
3.69085e-05
3.97886e-05
4.22376e-05
4.45172e-05
4.66655e-05
4.87362e-05
5.08155e-05
5.29746e-05
5.52262e-05
5.75251e-05
5.97789e-05
6.1871e-05
6.36848e-05
6.5127e-05
6.61439e-05
6.67318e-05
6.67405e-05
6.65953e-05
6.62594e-05
6.57706e-05
6.54168e-05
6.54292e-05
6.60493e-05
6.73945e-05
6.92004e-05
7.05833e-05
7.01474e-05
6.56444e-05
5.70823e-05
5.04635e-05
4.96762e-05
4.96475e-05
3.82037e-05
8.79956e-06
1.05601e-06
1.32552e-05
2.20732e-05
2.8924e-05
3.35102e-05
3.44302e-05
3.61613e-05
3.87568e-05
4.14533e-05
4.37021e-05
4.57372e-05
4.76118e-05
4.94791e-05
5.13809e-05
5.33396e-05
5.53372e-05
5.7315e-05
5.9188e-05
6.08637e-05
6.22588e-05
6.33259e-05
6.41059e-05
6.42474e-05
6.43249e-05
6.43158e-05
6.41226e-05
6.40366e-05
6.42711e-05
6.50614e-05
6.65433e-05
6.85103e-05
7.00961e-05
6.99363e-05
6.61751e-05
5.70192e-05
4.99266e-05
4.90028e-05
4.99745e-05
3.93501e-05
9.13999e-06
8.96378e-07
1.1656e-05
2.06108e-05
2.66843e-05
3.2608e-05
3.41795e-05
3.55252e-05
3.76387e-05
4.03058e-05
4.26783e-05
4.46703e-05
4.64071e-05
4.80806e-05
4.97464e-05
5.1437e-05
5.31545e-05
5.48687e-05
5.65233e-05
5.80521e-05
5.93811e-05
6.049e-05
6.14331e-05
6.16914e-05
6.19992e-05
6.23322e-05
6.24345e-05
6.26309e-05
6.31027e-05
6.40637e-05
6.56372e-05
6.76602e-05
6.92902e-05
6.92119e-05
6.58425e-05
5.66612e-05
4.92487e-05
4.80173e-05
5.0194e-05
4.03474e-05
9.45568e-06
7.54835e-07
1.03164e-05
1.93528e-05
2.45786e-05
3.07764e-05
3.38637e-05
3.50465e-05
3.6766e-05
3.90173e-05
4.14245e-05
4.34763e-05
4.51724e-05
4.66925e-05
4.81525e-05
4.96049e-05
5.1071e-05
5.25438e-05
5.39916e-05
5.53743e-05
5.66147e-05
5.78339e-05
5.87057e-05
5.91707e-05
5.9792e-05
6.03418e-05
6.07286e-05
6.11992e-05
6.18967e-05
6.30048e-05
6.46003e-05
6.65523e-05
6.80426e-05
6.78437e-05
6.47141e-05
5.57876e-05
4.80785e-05
4.67189e-05
5.0304e-05
4.12274e-05
9.75053e-06
6.34367e-07
9.17706e-06
1.84245e-05
2.27074e-05
2.86007e-05
3.30756e-05
3.46259e-05
3.61137e-05
3.79061e-05
4.00351e-05
4.21028e-05
4.38451e-05
4.52864e-05
4.66005e-05
4.78667e-05
4.91279e-05
5.03976e-05
5.16657e-05
5.29052e-05
5.40872e-05
5.5351e-05
5.6086e-05
5.68021e-05
5.76692e-05
5.83755e-05
5.90005e-05
5.97018e-05
6.05719e-05
6.17636e-05
6.32688e-05
6.49901e-05
6.6119e-05
6.56118e-05
6.23213e-05
5.39521e-05
4.63424e-05
4.51838e-05
5.02148e-05
4.19066e-05
1.00228e-05
5.28642e-07
8.28539e-06
1.79399e-05
2.1329e-05
2.65356e-05
3.1541e-05
3.39968e-05
3.56354e-05
3.72781e-05
3.89847e-05
4.07847e-05
4.25286e-05
4.39614e-05
4.51932e-05
4.63227e-05
4.74167e-05
4.85075e-05
4.96189e-05
5.06904e-05
5.18972e-05
5.29978e-05
5.36682e-05
5.4619e-05
5.55999e-05
5.64001e-05
5.71795e-05
5.80225e-05
5.89533e-05
6.01062e-05
6.13456e-05
6.26453e-05
6.31651e-05
6.22198e-05
5.8695e-05
5.12001e-05
4.45844e-05
4.33451e-05
4.98128e-05
4.22337e-05
1.02823e-05
4.33527e-07
7.6842e-06
1.74326e-05
2.08412e-05
2.49184e-05
2.97874e-05
3.32491e-05
3.51071e-05
3.67281e-05
3.8276e-05
3.9774e-05
4.12187e-05
4.26067e-05
4.37977e-05
4.48499e-05
4.58416e-05
4.68097e-05
4.77949e-05
4.8758e-05
4.98827e-05
5.08115e-05
5.15482e-05
5.2505e-05
5.34519e-05
5.42866e-05
5.50761e-05
5.59046e-05
5.66992e-05
5.76152e-05
5.83404e-05
5.90175e-05
5.87019e-05
5.72962e-05
5.35715e-05
4.73455e-05
4.23273e-05
4.21788e-05
4.9213e-05
4.1822e-05
1.0543e-05
3.79232e-07
7.58832e-06
1.673e-05
2.0824e-05
2.35006e-05
2.79942e-05
3.22347e-05
3.50076e-05
3.67934e-05
3.83396e-05
3.97157e-05
4.09632e-05
4.2073e-05
4.30746e-05
4.39593e-05
4.47884e-05
4.55721e-05
4.63937e-05
4.71339e-05
4.81067e-05
4.89045e-05
4.94439e-05
5.02389e-05
5.10167e-05
5.16812e-05
5.22435e-05
5.28121e-05
5.3179e-05
5.35991e-05
5.3537e-05
5.34656e-05
5.22461e-05
5.05861e-05
4.70024e-05
4.23129e-05
3.89528e-05
4.0525e-05
4.83416e-05
4.13397e-05
1.07797e-05
3.85457e-07
8.45605e-06
1.61954e-05
2.0828e-05
2.34307e-05
2.685e-05
3.06476e-05
3.42142e-05
3.67952e-05
3.84145e-05
3.97188e-05
4.07965e-05
4.17129e-05
4.25264e-05
4.32749e-05
4.39478e-05
4.46039e-05
4.51486e-05
4.56514e-05
4.60402e-05
4.66629e-05
4.6836e-05
4.70967e-05
4.74763e-05
4.77025e-05
4.77456e-05
4.7766e-05
4.74202e-05
4.71554e-05
4.62302e-05
4.55559e-05
4.37933e-05
4.2434e-05
3.96989e-05
3.74449e-05
3.64025e-05
3.94769e-05
4.72982e-05
4.05156e-05
1.08665e-05
5.19171e-07
1.04329e-05
1.66643e-05
2.12907e-05
2.41917e-05
2.74706e-05
3.0905e-05
3.43712e-05
3.75038e-05
4.01491e-05
4.17346e-05
4.29235e-05
4.37136e-05
4.41117e-05
4.42454e-05
4.41841e-05
4.3998e-05
4.37413e-05
4.34599e-05
4.30879e-05
4.27846e-05
4.2357e-05
4.21016e-05
4.16656e-05
4.10927e-05
4.04647e-05
3.9844e-05
3.8897e-05
3.81749e-05
3.69538e-05
3.63194e-05
3.50122e-05
3.47254e-05
3.3696e-05
3.42636e-05
3.53382e-05
3.98322e-05
4.58978e-05
3.83933e-05
1.08762e-05
7.8685e-07
1.33175e-05
1.87109e-05
2.25123e-05
2.58854e-05
2.92654e-05
3.27346e-05
3.55312e-05
3.79654e-05
4.02759e-05
4.20897e-05
4.2886e-05
4.31086e-05
4.28975e-05
4.22355e-05
4.1457e-05
4.05917e-05
3.96488e-05
3.86835e-05
3.77024e-05
3.64847e-05
3.56688e-05
3.47166e-05
3.35852e-05
3.26365e-05
3.17927e-05
3.10793e-05
3.05124e-05
3.01879e-05
2.98319e-05
3.00963e-05
3.02313e-05
3.13705e-05
3.23148e-05
3.47556e-05
3.74206e-05
4.22794e-05
4.38885e-05
3.66341e-05
1.05807e-05
1.28598e-06
1.72747e-05
2.05926e-05
2.45762e-05
2.8144e-05
3.1323e-05
3.42118e-05
3.64043e-05
3.76239e-05
3.8587e-05
3.93628e-05
3.94192e-05
3.90767e-05
3.84252e-05
3.75847e-05
3.65786e-05
3.53768e-05
3.41939e-05
3.31323e-05
3.2272e-05
3.13021e-05
3.04557e-05
2.98581e-05
2.94522e-05
2.91665e-05
2.91548e-05
2.92751e-05
2.97138e-05
3.03329e-05
3.12651e-05
3.25674e-05
3.38957e-05
3.60044e-05
3.78389e-05
4.09588e-05
4.32782e-05
4.5715e-05
4.25134e-05
3.32965e-05
1.00032e-05
2.28865e-06
2.07362e-05
2.32019e-05
2.75007e-05
3.05566e-05
3.28613e-05
3.45742e-05
3.58412e-05
3.63116e-05
3.65562e-05
3.67884e-05
3.68324e-05
3.66974e-05
3.64427e-05
3.62717e-05
3.5984e-05
3.5708e-05
3.54593e-05
3.52837e-05
3.52597e-05
3.53197e-05
3.5529e-05
3.57944e-05
3.62645e-05
3.67614e-05
3.74869e-05
3.82254e-05
3.91933e-05
4.02097e-05
4.13894e-05
4.27478e-05
4.39904e-05
4.59267e-05
4.66387e-05
4.91068e-05
4.79087e-05
4.62521e-05
4.04104e-05
2.53394e-05
8.78001e-06
1.55161e-06
2.4434e-06
3.20983e-06
4.04802e-06
4.79867e-06
5.46922e-06
6.02162e-06
6.4818e-06
6.81196e-06
7.0418e-06
7.17516e-06
7.2594e-06
7.26834e-06
7.25484e-06
7.2238e-06
7.16697e-06
7.10958e-06
7.04424e-06
6.99164e-06
6.93626e-06
6.90432e-06
6.87202e-06
6.86906e-06
6.87707e-06
6.9039e-06
6.94266e-06
7.02896e-06
7.09784e-06
7.24727e-06
7.34626e-06
7.56076e-06
7.68748e-06
7.9726e-06
8.18109e-06
8.6503e-06
8.92422e-06
9.40392e-06
9.41601e-06
9.09254e-06
7.59946e-06
)
;

boundaryField
{
    movingWall
    {
        type            nutkWallFunction;
        Cmu             0.09;
        kappa           0.41;
        E               9.8;
        value           uniform 0;
    }
    fixedWalls
    {
        type            nutkWallFunction;
        Cmu             0.09;
        kappa           0.41;
        E               9.8;
        value           uniform 0;
    }
    frontAndBack
    {
        type            empty;
    }
}


// ************************************************************************* //
