/*--------------------------------*- C++ -*----------------------------------*\
  =========                 |
  \\      /  F ield         | OpenFOAM: The Open Source CFD Toolbox
   \\    /   O peration     | Website:  https://openfoam.org
    \\  /    A nd           | Version:  12
     \\/     M anipulation  |
\*---------------------------------------------------------------------------*/
FoamFile
{
    format      ascii;
    class       volScalarField;
    location    "5.5";
    object      p;
}
// * * * * * * * * * * * * * * * * * * * * * * * * * * * * * * * * * * * * * //

dimensions      [0 2 -2 0 0 0 0];

internalField   nonuniform List<scalar> 
1600
(
1.16436e-08
-1.86085e-05
-9.29861e-05
-0.000201986
-0.000305328
-0.000389348
-0.000466467
-0.000563916
-0.0006916
-0.000850267
-0.0010483
-0.00133391
-0.00172175
-0.00195733
-0.00212949
-0.0025549
-0.00325036
-0.00408257
-0.00490811
-0.00559842
-0.00605957
-0.00622293
-0.00603649
-0.00545577
-0.00449267
-0.0031628
-0.00147113
0.000531237
0.00274235
0.00496495
0.00693161
0.00833934
0.00896768
0.00878212
0.0078493
0.00687933
0.00627352
0.00616907
0.00625632
0.00629599
-1.37606e-05
-5.41212e-05
-0.000136633
-0.000243176
-0.00032356
-0.000372042
-0.000415709
-0.0004907
-0.000604268
-0.000741981
-0.000872726
-0.00106309
-0.00142442
-0.00190566
-0.00244291
-0.00309704
-0.00387897
-0.00472358
-0.00552841
-0.00619063
-0.0066302
-0.0067891
-0.00662294
-0.0061063
-0.00523259
-0.00397879
-0.00236656
-0.000443432
0.00168428
0.00385436
0.00583208
0.00732597
0.00809612
0.0080577
0.00731762
0.00637377
0.00589804
0.00596363
0.00611934
0.00619386
-2.90398e-05
-0.000108396
-0.000216217
-0.000320463
-0.000372347
-0.000375414
-0.000374379
-0.000396511
-0.000464334
-0.000640213
-0.000955492
-0.00137741
-0.00192329
-0.00259731
-0.0033816
-0.0042372
-0.00511412
-0.00595985
-0.00671414
-0.00731681
-0.0077143
-0.00785431
-0.00770436
-0.00724375
-0.00644557
-0.00530247
-0.00383051
-0.00206831
-9.11607e-05
0.00198127
0.00395496
0.00559407
0.00665849
0.00699659
0.00668179
0.00609068
0.00578788
0.00584364
0.00599443
0.00604417
-2.15773e-05
-0.000140696
-0.000285934
-0.000380898
-0.000399466
-0.00037336
-0.000363093
-0.0004114
-0.00056606
-0.000904712
-0.00146345
-0.00219256
-0.0030214
-0.00391544
-0.00485357
-0.00579671
-0.00669877
-0.00752272
-0.0082316
-0.00878726
-0.00914612
-0.00926377
-0.00911862
-0.00869431
-0.00797668
-0.00696097
-0.00565822
-0.00409457
-0.00231877
-0.000406731
0.00151115
0.00326455
0.00464626
0.00549393
0.0058221
0.00581738
0.00583327
0.00586893
0.00593756
0.00593449
0.000102231
-7.36165e-05
-0.000240217
-0.000335274
-0.000361526
-0.000365771
-0.000421847
-0.000606652
-0.000989615
-0.00161323
-0.00245669
-0.0034408
-0.00448397
-0.00553302
-0.00655502
-0.00752853
-0.00843233
-0.00924536
-0.00992512
-0.0104334
-0.0107392
-0.0108306
-0.0106939
-0.010315
-0.00968238
-0.00879601
-0.00765987
-0.00628763
-0.00470922
-0.00297997
-0.00118056
0.000584431
0.00219424
0.00353679
0.004558
0.0052723
0.0057438
0.00596865
0.00592734
0.00585885
0.000403469
0.00015967
-2.83255e-05
-0.000155927
-0.000247377
-0.000368597
-0.000610529
-0.00105907
-0.00175839
-0.00268952
-0.00378115
-0.00494755
-0.00612324
-0.00725951
-0.00833356
-0.00932765
-0.0102153
-0.0109718
-0.0115741
-0.0120124
-0.0122723
-0.0123443
-0.01222
-0.0118886
-0.0113435
-0.010584
-0.00961167
-0.00843206
-0.00705833
-0.00551665
-0.00384978
-0.00211929
-0.000395116
0.00127943
0.00285765
0.00424179
0.00527437
0.00586866
0.00586101
0.00574598
0.000860125
0.00056863
0.000330971
0.000126158
-0.000102049
-0.000440816
-0.000978277
-0.00176692
-0.00279313
-0.00399101
-0.00527078
-0.00656129
-0.0078119
-0.00898542
-0.0100591
-0.0110158
-0.011844
-0.012531
-0.0130679
-0.0134507
-0.0136726
-0.0137282
-0.0136124
-0.0133195
-0.0128466
-0.0121931
-0.0113597
-0.0103486
-0.00916407
-0.00781395
-0.00631177
-0.00467696
-0.00292717
-0.00107386
0.000849784
0.002739
0.00434634
0.00540828
0.00579161
0.00557457
0.00140848
0.0010773
0.000747488
0.000415651
-2.03487e-05
-0.000655078
-0.00154266
-0.00267351
-0.003985
-0.00538516
-0.00679345
-0.00815438
-0.0094278
-0.0105883
-0.011622
-0.0125215
-0.0132845
-0.0139076
-0.0143889
-0.0147263
-0.0149176
-0.0149603
-0.0148521
-0.0145907
-0.0141752
-0.0136058
-0.0128828
-0.0120068
-0.0109773
-0.00979265
-0.00844992
-0.00694283
-0.00525708
-0.00336936
-0.00127672
0.000930253
0.00300422
0.00462337
0.00553062
0.00522404
0.00189964
0.001503
0.00107392
0.000584125
-0.000105558
-0.001066
-0.00228952
-0.00371487
-0.00524141
-0.00677806
-0.00825931
-0.00964294
-0.0109014
-0.0120222
-0.0130017
-0.013841
-0.0145431
-0.01511
-0.0155434
-0.0158438
-0.0160114
-0.0160457
-0.0159456
-0.0157113
-0.0153423
-0.0148396
-0.0142036
-0.0134344
-0.0125296
-0.0114828
-0.0102817
-0.00890604
-0.00732503
-0.00549599
-0.00337955
-0.00101181
0.00138892
0.00349042
0.00485218
0.00493904
0.00218254
0.00172672
0.00119056
0.000524421
-0.000427269
-0.0016895
-0.00319102
-0.00483182
-0.00650086
-0.00811367
-0.00962034
-0.0109915
-0.0122127
-0.0132825
-0.0142051
-0.0149871
-0.0156351
-0.0161544
-0.016549
-0.0168212
-0.0169723
-0.0170027
-0.0169123
-0.0167013
-0.0163703
-0.0159202
-0.0153518
-0.0146653
-0.0138582
-0.0129231
-0.0118448
-0.0105975
-0.00914313
-0.00742901
-0.00538986
-0.00300112
-0.000434722
0.00196321
0.00381305
0.00480475
0.00216001
0.00165766
0.00101912
0.000183153
-0.00100352
-0.00250357
-0.0042068
-0.00597875
-0.007724
-0.00936148
-0.0108571
-0.0121925
-0.0133645
-0.0143796
-0.0152473
-0.0159779
-0.0165804
-0.0170618
-0.0174271
-0.0176796
-0.0178209
-0.0178516
-0.0177719
-0.0175822
-0.0172831
-0.0168753
-0.0163601
-0.0157377
-0.0150065
-0.0141601
-0.0131843
-0.0120534
-0.0107291
-0.00915811
-0.0072668
-0.00498341
-0.00239017
0.000120285
0.00230206
0.00382058
0.00180653
0.00126766
0.000540447
-0.000437981
-0.00180134
-0.00346633
-0.0052828
-0.00711954
-0.00888387
-0.0105061
-0.011965
-0.0132504
-0.014368
-0.0153292
-0.016147
-0.0168337
-0.0173995
-0.017852
-0.0181966
-0.0184364
-0.0185731
-0.0186072
-0.0185392
-0.0183691
-0.0180973
-0.0177247
-0.0172522
-0.0166808
-0.0160096
-0.0152344
-0.0143439
-0.0133162
-0.0121162
-0.0106943
-0.0089825
-0.00688969
-0.00439385
-0.00190385
0.000305272
0.00190109
0.00114333
0.000584955
-0.000205419
-0.00129122
-0.00276218
-0.0045153
-0.00637089
-0.00821967
-0.00996015
-0.0115398
-0.0129455
-0.0141741
-0.0152368
-0.0161478
-0.016922
-0.0175725
-0.0181096
-0.0185407
-0.018871
-0.0191033
-0.0192391
-0.0192788
-0.0192226
-0.0190705
-0.0188228
-0.0184799
-0.0180429
-0.0175129
-0.0168903
-0.0161731
-0.0153538
-0.0144158
-0.0133299
-0.0120526
-0.0105245
-0.00866025
-0.00639471
-0.00400466
-0.00196022
-0.000508643
0.00023938
-0.000319233
-0.00114314
-0.00229374
-0.0038171
-0.00558752
-0.00743101
-0.00924974
-0.010938
-0.0124586
-0.013803
-0.0149734
-0.0159838
-0.01685
-0.0175872
-0.0182083
-0.0187232
-0.0191387
-0.0194593
-0.0196876
-0.0198247
-0.0198709
-0.0198263
-0.0196907
-0.0194641
-0.0191469
-0.01874
-0.0182448
-0.0176626
-0.0169937
-0.0162345
-0.0153744
-0.0143913
-0.0132491
-0.0118968
-0.0102662
-0.00828792
-0.0060819
-0.0042886
-0.003063
-0.000809305
-0.0013551
-0.00218785
-0.00335951
-0.00488553
-0.00662461
-0.00842791
-0.0101872
-0.0118071
-0.013261
-0.0145424
-0.015657
-0.0166199
-0.0174471
-0.0181534
-0.0187509
-0.0192486
-0.0196526
-0.0199668
-0.0201931
-0.0203327
-0.0203856
-0.0203518
-0.020231
-0.0200229
-0.0197279
-0.0193468
-0.0188812
-0.0183333
-0.0177051
-0.0169969
-0.0162035
-0.0153106
-0.0142906
-0.0131023
-0.0116945
-0.0100003
-0.00805131
-0.00650574
-0.00550302
-0.00190743
-0.00242846
-0.00325178
-0.00441043
-0.00590315
-0.00758447
-0.00932868
-0.0110143
-0.0125606
-0.0139469
-0.0151682
-0.0162318
-0.0171529
-0.017947
-0.0186278
-0.0192064
-0.0196909
-0.0200863
-0.020396
-0.0206218
-0.0207642
-0.0208234
-0.0207991
-0.0206911
-0.0204991
-0.0202231
-0.0198641
-0.0194237
-0.0189049
-0.0183113
-0.017646
-0.0169089
-0.0160929
-0.0151788
-0.0141349
-0.0129191
-0.011481
-0.00984665
-0.00852929
-0.00769024
-0.0029653
-0.00345484
-0.00425392
-0.00538244
-0.00682335
-0.00843534
-0.0101095
-0.0117182
-0.0131932
-0.0145163
-0.0156834
-0.0167025
-0.0175882
-0.0183547
-0.0190149
-0.0195786
-0.0200528
-0.0204418
-0.0207485
-0.0209742
-0.0211193
-0.021184
-0.0211679
-0.0210706
-0.0208919
-0.0206318
-0.0202913
-0.0198722
-0.0193777
-0.0188129
-0.0181832
-0.0174929
-0.016741
-0.0159163
-0.0149944
-0.0139391
-0.0127184
-0.0113736
-0.0102706
-0.00956369
-0.00391574
-0.00436667
-0.00513218
-0.00622383
-0.0076089
-0.00915172
-0.0107546
-0.0122909
-0.0137014
-0.014969
-0.0160899
-0.017072
-0.0179287
-0.0186732
-0.0193172
-0.0198693
-0.0203357
-0.02072
-0.0210246
-0.0212505
-0.021398
-0.0214671
-0.0214574
-0.0213686
-0.0212004
-0.0209531
-0.0206273
-0.0202252
-0.0197504
-0.0192086
-0.0186073
-0.0179543
-0.0172539
-0.016502
-0.0156801
-0.0147577
-0.0137201
-0.0126186
-0.0117023
-0.0110985
-0.00470405
-0.00512158
-0.00584837
-0.00690094
-0.00823271
-0.00971499
-0.0112533
-0.0127265
-0.0140827
-0.0153045
-0.0163882
-0.0173412
-0.0181755
-0.0189034
-0.0195354
-0.0200792
-0.02054
-0.0209211
-0.0212244
-0.0214507
-0.0216
-0.0216723
-0.0216673
-0.0215846
-0.021424
-0.0211858
-0.0208709
-0.0204813
-0.0200211
-0.0194965
-0.0189165
-0.0182913
-0.01763
-0.016934
-0.0161916
-0.0153784
-0.0144892
-0.0135699
-0.0128124
-0.0122955
-0.00530787
-0.00568388
-0.00637741
-0.00739575
-0.0086807
-0.0101139
-0.0115989
-0.0130213
-0.0143348
-0.0155217
-0.016578
-0.01751
-0.0183287
-0.0190453
-0.0196695
-0.020208
-0.0206656
-0.021045
-0.0213479
-0.0215746
-0.0217253
-0.0217997
-0.0217975
-0.0217183
-0.0215622
-0.0213293
-0.0210209
-0.0206391
-0.020188
-0.0196744
-0.0191081
-0.0185014
-0.0178667
-0.0172107
-0.016528
-0.0158015
-0.0150293
-0.0142496
-0.0136154
-0.0131667
-0.00570357
-0.00604591
-0.00671536
-0.00770419
-0.00894789
-0.0103446
-0.0117882
-0.0131727
-0.014456
-0.0156193
-0.0166579
-0.0175772
-0.0183872
-0.0190978
-0.0197185
-0.0202551
-0.0207119
-0.0210914
-0.0213948
-0.0216224
-0.021774
-0.0218494
-0.0218482
-0.02177
-0.021615
-0.0213836
-0.0210769
-0.0206974
-0.0202495
-0.0197401
-0.0191798
-0.018582
-0.0179622
-0.017331
-0.0166895
-0.0160279
-0.0153447
-0.0146672
-0.0141257
-0.0137306
-0.00587686
-0.00620439
-0.00686295
-0.00783036
-0.00903922
-0.0104071
-0.0118197
-0.0131796
-0.0144449
-0.0155954
-0.0166258
-0.0175406
-0.0183488
-0.0190596
-0.0196812
-0.0202195
-0.0206783
-0.0210599
-0.021365
-0.021594
-0.0217464
-0.0218219
-0.0218198
-0.0217401
-0.0215829
-0.0213486
-0.0210387
-0.0206558
-0.0202046
-0.0196922
-0.0191299
-0.0185304
-0.0179143
-0.0172938
-0.016676
-0.0160589
-0.0154431
-0.0148421
-0.0143669
-0.0140058
-0.00585678
-0.0061742
-0.00682707
-0.00778171
-0.00896357
-0.010305
-0.0116996
-0.013045
-0.0143016
-0.0154486
-0.0164796
-0.0173979
-0.0182111
-0.0189278
-0.0195555
-0.0200995
-0.0205636
-0.0209497
-0.0212583
-0.0214896
-0.0216429
-0.0217177
-0.0217133
-0.0216296
-0.0214666
-0.021225
-0.0209064
-0.0205139
-0.0200522
-0.0195289
-0.0189553
-0.0183466
-0.0177219
-0.0170984
-0.0164876
-0.015895
-0.0153261
-0.0147802
-0.0143651
-0.0140081
-0.00567912
-0.00598479
-0.00663114
-0.0075769
-0.00873594
-0.0100481
-0.0114309
-0.0127695
-0.0140248
-0.0151764
-0.0162161
-0.0171455
-0.0179709
-0.0186998
-0.019339
-0.0198934
-0.0203666
-0.02076
-0.0210744
-0.0213092
-0.021464
-0.0215376
-0.0215296
-0.0214396
-0.0212674
-0.0210141
-0.0206813
-0.0202724
-0.0197925
-0.0192499
-0.0186564
-0.0180279
-0.0173837
-0.0167439
-0.0161246
-0.0155385
-0.0149974
-0.0144839
-0.0141391
-0.01375
-0.00538265
-0.00567429
-0.0063078
-0.00723983
-0.00837627
-0.00965316
-0.0110177
-0.0123534
-0.0136132
-0.0147757
-0.0158312
-0.0167792
-0.017624
-0.0183719
-0.0190286
-0.0195988
-0.0200855
-0.02049
-0.0208127
-0.0210531
-0.0212102
-0.0212827
-0.02127
-0.0211715
-0.0209871
-0.0207175
-0.0203649
-0.0199328
-0.0194268
-0.0188559
-0.0182326
-0.0175737
-0.0168994
-0.0162307
-0.0155884
-0.0149937
-0.0144662
-0.0139574
-0.0136597
-0.0132462
-0.00501763
-0.00528932
-0.00589508
-0.00679611
-0.00790174
-0.00914107
-0.010471
-0.0118
-0.0130657
-0.0142432
-0.0153204
-0.0162939
-0.0171655
-0.0179396
-0.0186208
-0.0192129
-0.0197184
-0.0201384
-0.020473
-0.0207213
-0.0208821
-0.020954
-0.0209358
-0.020827
-0.0206272
-0.0203373
-0.0199592
-0.019497
-0.0189569
-0.0183484
-0.0176853
-0.0169852
-0.0162693
-0.0155598
-0.0148816
-0.0142671
-0.0137421
-0.0132114
-0.0129531
-0.0125106
-0.00464398
-0.00488233
-0.00543443
-0.00627739
-0.00732979
-0.00852129
-0.00980493
-0.0111147
-0.0123819
-0.0135752
-0.0146784
-0.0156837
-0.0165897
-0.017398
-0.0181114
-0.0187325
-0.0192631
-0.0197039
-0.0200545
-0.0203139
-0.0204805
-0.0205526
-0.0205288
-0.0204082
-0.0201904
-0.0198759
-0.019467
-0.0189678
-0.0183855
-0.0177303
-0.0170172
-0.0162647
-0.0154954
-0.014733
-0.0140069
-0.0133604
-0.0128237
-0.0122483
-0.0120501
-0.0115582
-0.00432144
-0.00450017
-0.00496153
-0.00571336
-0.00668363
-0.0078045
-0.00902819
-0.0103022
-0.0115613
-0.0127679
-0.0138994
-0.0149424
-0.0158905
-0.0167416
-0.0174958
-0.018154
-0.0187171
-0.0191849
-0.0195567
-0.0198311
-0.0200063
-0.0200802
-0.0200511
-0.0199178
-0.0196797
-0.0193371
-0.0188923
-0.0183498
-0.0177173
-0.0170064
-0.0162329
-0.0154171
-0.0145826
-0.0137547
-0.012968
-0.0122754
-0.0117083
-0.0110903
-0.0109556
-0.0103825
-0.00408761
-0.00416889
-0.00450049
-0.00512962
-0.00598756
-0.00700675
-0.00814753
-0.00936604
-0.0106039
-0.0118181
-0.0129784
-0.014064
-0.0150618
-0.0159647
-0.0167693
-0.017474
-0.0180779
-0.0185801
-0.0189793
-0.0192737
-0.019461
-0.019539
-0.0195058
-0.0193596
-0.0190996
-0.018726
-0.0182411
-0.0176496
-0.01696
-0.0161847
-0.0153413
-0.014451
-0.0135397
-0.0126334
-0.0117729
-0.0110187
-0.0104039
-0.00972203
-0.00967744
-0.0089516
-0.00393043
-0.00387095
-0.00406355
-0.00454887
-0.00526208
-0.00614483
-0.00717189
-0.00831135
-0.00951154
-0.0107248
-0.0119123
-0.0130442
-0.0140991
-0.0150632
-0.0159284
-0.0166896
-0.017344
-0.0178891
-0.0183228
-0.018643
-0.018847
-0.0189324
-0.0188969
-0.0187386
-0.0184562
-0.0180499
-0.0175219
-0.0168772
-0.0161247
-0.0152779
-0.0143557
-0.0133807
-0.0123808
-0.0113837
-0.0104356
-0.00960296
-0.00891758
-0.00814017
-0.00821429
-0.00718948
-0.0037396
-0.00357327
-0.00366324
-0.00398892
-0.00452163
-0.00523144
-0.00611237
-0.00714683
-0.00829027
-0.00949143
-0.0107024
-0.0118828
-0.0130013
-0.014036
-0.0149723
-0.0158009
-0.0165159
-0.0171133
-0.0175898
-0.0179427
-0.0181689
-0.0182661
-0.0182316
-0.0180629
-0.0177589
-0.0173199
-0.0167477
-0.0160476
-0.0152286
-0.0143053
-0.0132973
-0.0122285
-0.0111287
-0.0100278
-0.00897807
-0.00804765
-0.00726629
-0.00637343
-0.00652817
-0.00501512
-0.00346701
-0.00330396
-0.00331505
-0.0034596
-0.0037765
-0.00427792
-0.00498155
-0.00588529
-0.00695249
-0.00812912
-0.009358
-0.0105872
-0.0117745
-0.012888
-0.0139055
-0.0148122
-0.0155985
-0.0162579
-0.0167861
-0.0171794
-0.0174346
-0.0175491
-0.01752
-0.0173449
-0.017022
-0.0165522
-0.0159375
-0.0151826
-0.014297
-0.013295
-0.0121971
-0.0110274
-0.00981759
-0.00860016
-0.00743357
-0.00638216
-0.00547738
-0.00445708
-0.00456386
-0.00240649
-0.00321632
-0.00310206
-0.00302452
-0.00296631
-0.00303556
-0.00329559
-0.00379406
-0.00454537
-0.00551985
-0.00666045
-0.00790096
-0.00917773
-0.0104365
-0.0116349
-0.0127419
-0.0137363
-0.0146037
-0.0153349
-0.0159237
-0.0163656
-0.0166572
-0.0167955
-0.0167781
-0.0166034
-0.0162666
-0.0157714
-0.0151191
-0.0143142
-0.0133658
-0.0122874
-0.011099
-0.0098241
-0.00849581
-0.00714827
-0.00584592
-0.00464413
-0.00357804
-0.00238804
-0.00226477
0.000556598
-0.00301852
-0.00295579
-0.00277831
-0.00250788
-0.00230494
-0.0022963
-0.0025682
-0.0031529
-0.0040253
-0.00512289
-0.00636992
-0.00769158
-0.00902207
-0.0103082
-0.0115099
-0.0125987
-0.013555
-0.0143661
-0.0150237
-0.0155225
-0.0158584
-0.016028
-0.0160291
-0.0158598
-0.015522
-0.0150112
-0.0143309
-0.0134859
-0.0124839
-0.0113364
-0.0100614
-0.00867959
-0.00722415
-0.00572786
-0.00425787
-0.00285546
-0.00156168
-0.000108007
0.000393111
0.00387015
-0.00282039
-0.00281665
-0.00253988
-0.00206124
-0.00157591
-0.00128863
-0.00132877
-0.00174517
-0.00251508
-0.00356958
-0.00482217
-0.00618686
-0.00758722
-0.00896018
-0.0102571
-0.0114424
-0.0124913
-0.0133873
-0.0141199
-0.0146821
-0.0150699
-0.0152799
-0.0153098
-0.0151589
-0.0148277
-0.0143137
-0.0136198
-0.0127495
-0.0117087
-0.0105039
-0.00914932
-0.00765955
-0.00606419
-0.00438731
-0.00269052
-0.000990227
0.000665723
0.00256133
0.00364878
0.0079181
-0.00258542
-0.00261564
-0.00226808
-0.00159072
-0.000835012
-0.000287616
-0.000114653
-0.000378548
-0.00105666
-0.00207383
-0.00333412
-0.00474104
-0.00620785
-0.00766304
-0.00905073
-0.0103292
-0.0114691
-0.0124505
-0.0132605
-0.0138904
-0.0143357
-0.0145933
-0.0146612
-0.0145385
-0.0142255
-0.0137222
-0.013029
-0.0121482
-0.0110846
-0.00983602
-0.00841034
-0.00680988
-0.00505427
-0.00314376
-0.00111844
0.00105754
0.00334055
0.00605275
0.00824593
0.0141177
-0.00230913
-0.00234376
-0.00191121
-0.00106651
-7.83756e-05
0.00067688
0.00101681
0.000874268
0.000269441
-0.000718049
-0.00198519
-0.00342822
-0.00495324
-0.00648174
-0.00795181
-0.0093164
-0.0105421
-0.0116057
-0.0124921
-0.0131911
-0.0136971
-0.0140067
-0.0141191
-0.0140326
-0.0137482
-0.0132639
-0.0125807
-0.0116962
-0.0106195
-0.0093364
-0.00784796
-0.00613411
-0.00419328
-0.00197715
0.000520525
0.00344979
0.00681006
0.0111214
0.0157758
0.0253644
-0.00215303
-0.002138
-0.0015446
-0.000517873
0.000625325
0.00154911
0.00199561
0.00192875
0.00136574
0.000387555
-0.000896104
-0.00237511
-0.00395134
-0.00554164
-0.00707993
-0.00851505
-0.00981141
-0.0109431
-0.0118937
-0.0126514
-0.0132106
-0.0135664
-0.0137192
-0.0136664
-0.0134098
-0.0129468
-0.0122797
-0.0114002
-0.010301
-0.00897854
-0.00743178
-0.0056066
-0.00346773
-0.000891948
0.00221283
0.0062165
0.0112553
0.0185621
0.0282229
0.0448451
-0.0030708
-0.00243753
-0.00140461
-8.68855e-05
0.00123537
0.00224553
0.0027628
0.00273708
0.00219517
0.00122332
-6.83565e-05
-0.00156997
-0.00318272
-0.00482021
-0.0064129
-0.00790484
-0.00925827
-0.0104436
-0.0114442
-0.0122462
-0.0128456
-0.0132355
-0.0134178
-0.0133881
-0.0131502
-0.0126982
-0.0120359
-0.0111515
-0.0100489
-0.00870807
-0.0071097
-0.0051976
-0.00289593
-4.23014e-05
0.00368348
0.00890626
0.0163111
0.0284451
0.0462061
0.0729879
-0.00518443
-0.00160945
-6.12046e-05
0.00121844
0.00242267
0.00334225
0.00378528
0.00369111
0.0030926
0.00207821
0.000750869
-0.000788764
-0.00244556
-0.00413265
-0.00577722
-0.00732339
-0.00872793
-0.00996142
-0.0110029
-0.0118416
-0.0124697
-0.0128858
-0.0130866
-0.013074
-0.0128449
-0.0124012
-0.0117359
-0.0108477
-0.00972107
-0.00834859
-0.00670311
-0.00479325
-0.00242944
0.000432105
0.00473578
0.0108014
0.0214872
0.0393744
0.0669952
0.102695
)
;

boundaryField
{
    movingWall
    {
        type            zeroGradient;
    }
    fixedWalls
    {
        type            zeroGradient;
    }
    frontAndBack
    {
        type            empty;
    }
}


// ************************************************************************* //
