/*--------------------------------*- C++ -*----------------------------------*\
  =========                 |
  \\      /  F ield         | OpenFOAM: The Open Source CFD Toolbox
   \\    /   O peration     | Website:  https://openfoam.org
    \\  /    A nd           | Version:  12
     \\/     M anipulation  |
\*---------------------------------------------------------------------------*/
FoamFile
{
    format      ascii;
    class       surfaceScalarField;
    location    "5.5";
    object      phi;
}
// * * * * * * * * * * * * * * * * * * * * * * * * * * * * * * * * * * * * * //

dimensions      [0 3 -1 0 0 0 0];

internalField   nonuniform List<scalar> 
3120
(
8.28311e-08
-8.28323e-08
2.08142e-07
-1.25311e-07
3.04664e-07
-9.65225e-08
3.42233e-07
-3.7569e-08
3.37624e-07
4.60888e-09
3.21259e-07
1.63649e-08
3.12727e-07
8.53263e-09
3.0683e-07
5.89627e-09
2.86136e-07
2.06939e-08
2.37361e-07
4.87753e-08
1.43625e-07
9.37361e-08
-3.93217e-08
1.82947e-07
-3.31518e-07
2.92196e-07
-7.6342e-07
4.31902e-07
-1.30278e-06
5.39361e-07
-1.8534e-06
5.5062e-07
-2.36234e-06
5.08934e-07
-2.8057e-06
4.43365e-07
-3.17716e-06
3.71461e-07
-3.47726e-06
3.00095e-07
-3.70705e-06
2.29794e-07
-3.86848e-06
1.61429e-07
-3.96115e-06
9.2674e-08
-3.98483e-06
2.36774e-08
-3.93261e-06
-5.22248e-08
-3.80782e-06
-1.24784e-07
-3.59788e-06
-2.0994e-07
-3.3008e-06
-2.97085e-07
-2.90938e-06
-3.91421e-07
-2.4241e-06
-4.85277e-07
-1.8468e-06
-5.77302e-07
-1.19787e-06
-6.48927e-07
-5.3149e-07
-6.66381e-07
7.69445e-08
-6.08434e-07
5.57675e-07
-4.8073e-07
7.5149e-07
-1.93815e-07
6.37635e-07
1.13855e-07
4.10669e-07
2.26966e-07
1.71624e-07
2.39045e-07
1.71624e-07
1.5103e-07
-2.33862e-07
3.22917e-07
-2.97198e-07
4.32878e-07
-2.06483e-07
4.683e-07
-7.29907e-08
4.44122e-07
2.87862e-08
3.78668e-07
8.18195e-08
2.84433e-07
1.02767e-07
1.43564e-07
1.46765e-07
-8.26045e-08
2.46863e-07
-4.37681e-07
4.03851e-07
-9.5237e-07
6.08426e-07
-1.60025e-06
8.30831e-07
-2.2996e-06
9.9154e-07
-2.93306e-06
1.06536e-06
-3.43716e-06
1.04346e-06
-3.85677e-06
9.70232e-07
-4.2135e-06
8.65664e-07
-4.51127e-06
7.41136e-07
-4.75112e-06
6.11312e-07
-4.93334e-06
4.82319e-07
-5.05817e-06
3.54623e-07
-5.12954e-06
2.32796e-07
-5.14646e-06
1.09595e-07
-5.10408e-06
-1.87005e-08
-5.01008e-06
-1.46229e-07
-4.85077e-06
-2.84093e-07
-4.62571e-06
-4.34999e-07
-4.32459e-06
-5.98207e-07
-3.93768e-06
-7.78327e-07
-3.46002e-06
-9.62935e-07
-2.89638e-06
-1.14094e-06
-2.25443e-06
-1.29088e-06
-1.55811e-06
-1.3627e-06
-8.49628e-07
-1.31692e-06
-2.37958e-07
-1.0924e-06
2.18926e-07
-6.50699e-07
3.68378e-07
-3.55965e-08
3.03435e-07
2.91908e-07
1.40495e-07
4.01985e-07
3.12119e-07
1.85927e-07
-4.19789e-07
3.20614e-07
-4.31885e-07
3.71076e-07
-2.56946e-07
3.48496e-07
-5.04099e-08
2.62871e-07
1.1441e-07
1.105e-07
2.34191e-07
-1.41722e-07
3.54989e-07
-5.28376e-07
5.3342e-07
-1.06664e-06
7.85129e-07
-1.72917e-06
1.06638e-06
-2.42742e-06
1.30667e-06
-3.05035e-06
1.45376e-06
-3.57077e-06
1.51196e-06
-3.98888e-06
1.48348e-06
-4.32979e-06
1.38437e-06
-4.60626e-06
1.2467e-06
-4.82904e-06
1.08844e-06
-5.00786e-06
9.19951e-07
-5.14877e-06
7.52223e-07
-5.25319e-06
5.86738e-07
-5.32455e-06
4.25984e-07
-5.35851e-06
2.66757e-07
-5.35293e-06
1.04021e-07
-5.31023e-06
-6.14023e-08
-5.22707e-06
-2.29392e-07
-5.10163e-06
-4.09529e-07
-4.9306e-06
-6.06032e-07
-4.70822e-06
-8.20593e-07
-4.42948e-06
-1.05706e-06
-4.08055e-06
-1.31187e-06
-3.6476e-06
-1.57389e-06
-3.12185e-06
-1.81663e-06
-2.50435e-06
-1.98021e-06
-1.81973e-06
-2.00154e-06
-1.11864e-06
-1.79349e-06
-4.8129e-07
-1.28805e-06
-7.17028e-08
-4.45183e-07
3.68736e-08
1.83332e-07
2.59155e-08
4.12943e-07
3.38035e-07
1.57965e-07
-5.77755e-07
2.12778e-07
-4.86698e-07
1.73763e-07
-2.1793e-07
6.1049e-08
6.23042e-08
-1.32738e-07
3.08198e-07
-4.39006e-07
5.40459e-07
-8.85723e-07
8.01706e-07
-1.46635e-06
1.11405e-06
-2.12457e-06
1.44335e-06
-2.77449e-06
1.7163e-06
-3.33707e-06
1.86925e-06
-3.78842e-06
1.90512e-06
-4.13596e-06
1.85949e-06
-4.40196e-06
1.74949e-06
-4.61358e-06
1.59598e-06
-4.78204e-06
1.41516e-06
-4.91886e-06
1.22526e-06
-5.03295e-06
1.03405e-06
-5.12535e-06
8.4462e-07
-5.19194e-06
6.53327e-07
-5.23354e-06
4.67585e-07
-5.24761e-06
2.80827e-07
-5.23617e-06
9.25778e-08
-5.19998e-06
-9.75933e-08
-5.13689e-06
-2.92478e-07
-5.04396e-06
-5.02454e-07
-4.91916e-06
-7.30838e-07
-4.75831e-06
-9.81437e-07
-4.55962e-06
-1.25575e-06
-4.31817e-06
-1.55332e-06
-4.02863e-06
-1.86343e-06
-3.67511e-06
-2.17014e-06
-3.2168e-06
-2.43852e-06
-2.63174e-06
-2.5866e-06
-1.92947e-06
-2.49575e-06
-1.16282e-06
-2.0547e-06
-4.45174e-07
-1.16283e-06
-1.22739e-07
-1.39103e-07
-2.24769e-08
3.12681e-07
3.15558e-07
7.71208e-08
-6.54875e-07
2.66806e-08
-4.36258e-07
-1.12833e-07
-7.84168e-08
-3.31641e-07
2.81112e-07
-6.5205e-07
6.28606e-07
-1.09464e-06
9.83047e-07
-1.65326e-06
1.36032e-06
-2.27525e-06
1.73605e-06
-2.87691e-06
2.045e-06
-3.38082e-06
2.22021e-06
-3.76971e-06
2.25814e-06
-4.06864e-06
2.20404e-06
-4.29305e-06
2.08391e-06
-4.46278e-06
1.91921e-06
-4.59629e-06
1.7295e-06
-4.70541e-06
1.52429e-06
-4.79071e-06
1.31055e-06
-4.85115e-06
1.09449e-06
-4.88699e-06
8.80453e-07
-4.90547e-06
6.71811e-07
-4.90842e-06
4.70538e-07
-4.89865e-06
2.71052e-07
-4.87714e-06
7.10697e-08
-4.84285e-06
-1.31886e-07
-4.79271e-06
-3.42613e-07
-4.72717e-06
-5.67994e-07
-4.64543e-06
-8.12583e-07
-4.54557e-06
-1.0813e-06
-4.42371e-06
-1.37761e-06
-4.27446e-06
-1.70256e-06
-4.08809e-06
-2.0498e-06
-3.85626e-06
-2.40198e-06
-3.56099e-06
-2.73378e-06
-3.15995e-06
-2.98764e-06
-2.58795e-06
-3.06776e-06
-1.83199e-06
-2.81066e-06
-9.13447e-07
-2.08137e-06
-2.1423e-07
-8.38321e-07
-1.17998e-08
1.10251e-07
3.03758e-07
-4.41201e-08
-6.10755e-07
-2.01124e-07
-2.79254e-07
-4.36554e-07
1.57013e-07
-7.5695e-07
6.01509e-07
-1.17872e-06
1.05038e-06
-1.69587e-06
1.5002e-06
-2.26736e-06
1.93181e-06
-2.82272e-06
2.2914e-06
-3.2882e-06
2.51049e-06
-3.63714e-06
2.56915e-06
-3.89707e-06
2.51807e-06
-4.0898e-06
2.39677e-06
-4.23019e-06
2.2243e-06
-4.33198e-06
2.021e-06
-4.39977e-06
1.79729e-06
-4.44025e-06
1.56477e-06
-4.46052e-06
1.33082e-06
-4.46751e-06
1.10148e-06
-4.46664e-06
8.79588e-07
-4.45938e-06
6.64543e-07
-4.44401e-06
4.55174e-07
-4.42158e-06
2.48623e-07
-4.39261e-06
4.20938e-08
-4.35654e-06
-1.67949e-07
-4.3131e-06
-3.86052e-07
-4.26352e-06
-6.17583e-07
-4.20843e-06
-8.67666e-07
-4.14805e-06
-1.14167e-06
-4.08139e-06
-1.44428e-06
-4.00556e-06
-1.77839e-06
-3.91292e-06
-2.14245e-06
-3.78798e-06
-2.52692e-06
-3.61338e-06
-2.90838e-06
-3.36061e-06
-3.24041e-06
-2.9746e-06
-3.45378e-06
-2.36693e-06
-3.41832e-06
-1.49077e-06
-2.95753e-06
-4.8717e-07
-1.84192e-06
-3.26924e-08
-3.44226e-07
2.71066e-07
-1.61262e-07
-4.49493e-07
-4.24716e-07
-1.57999e-08
-7.4459e-07
4.76887e-07
-1.1448e-06
1.00172e-06
-1.62202e-06
1.5276e-06
-2.14541e-06
2.02359e-06
-2.66042e-06
2.44682e-06
-3.09996e-06
2.73094e-06
-3.42458e-06
2.83511e-06
-3.65593e-06
2.8005e-06
-3.82126e-06
2.6834e-06
-3.93239e-06
2.5079e-06
-4.00168e-06
2.29359e-06
-4.03825e-06
2.05757e-06
-4.05176e-06
1.81079e-06
-4.05029e-06
1.56331e-06
-4.03985e-06
1.32037e-06
-4.02398e-06
1.08562e-06
-4.00388e-06
8.5949e-07
-3.98015e-06
6.40807e-07
-3.95283e-06
4.27862e-07
-3.92213e-06
2.17923e-07
-3.88833e-06
8.29262e-09
-3.85135e-06
-2.04936e-07
-3.81178e-06
-4.25614e-07
-3.77088e-06
-6.58491e-07
-3.73001e-06
-9.08528e-07
-3.69062e-06
-1.18107e-06
-3.65354e-06
-1.48136e-06
-3.61816e-06
-1.81376e-06
-3.58052e-06
-2.18009e-06
-3.53104e-06
-2.57641e-06
-3.45154e-06
-2.98788e-06
-3.31004e-06
-3.38191e-06
-3.06515e-06
-3.69866e-06
-2.64545e-06
-3.83802e-06
-1.96528e-06
-3.63771e-06
-9.32782e-07
-2.87442e-06
-1.14343e-07
-1.16267e-06
1.56723e-07
-2.65605e-07
-1.83888e-07
-6.04127e-07
3.22722e-07
-9.95914e-07
8.68674e-07
-1.44263e-06
1.44844e-06
-1.92684e-06
2.01181e-06
-2.41004e-06
2.50679e-06
-2.83597e-06
2.87275e-06
-3.15334e-06
3.04831e-06
-3.3693e-06
3.05107e-06
-3.51657e-06
2.94777e-06
-3.60963e-06
2.77646e-06
-3.65944e-06
2.55771e-06
-3.67786e-06
2.31201e-06
-3.67458e-06
2.05429e-06
-3.65823e-06
1.79444e-06
-3.63469e-06
1.53977e-06
-3.6078e-06
1.29348e-06
-3.57927e-06
1.05708e-06
-3.54955e-06
8.29773e-07
-3.51885e-06
6.10099e-07
-3.48701e-06
3.96028e-07
-3.45387e-06
1.84784e-07
-3.41932e-06
-2.62617e-08
-3.38334e-06
-2.40918e-07
-3.34663e-06
-4.62319e-07
-3.31049e-06
-6.94632e-07
-3.27674e-06
-9.42285e-07
-3.24756e-06
-1.21024e-06
-3.22502e-06
-1.5039e-06
-3.21008e-06
-1.82871e-06
-3.20117e-06
-2.189e-06
-3.19202e-06
-2.58555e-06
-3.16846e-06
-3.01144e-06
-3.10412e-06
-3.44625e-06
-2.95772e-06
-3.84506e-06
-2.67384e-06
-4.1219e-06
-2.18308e-06
-4.12847e-06
-1.38396e-06
-3.67354e-06
-3.26849e-07
-2.21978e-06
-1.70126e-07
-3.36405e-07
1.52517e-07
-7.37077e-07
7.23394e-07
-1.16745e-06
1.29905e-06
-1.62366e-06
1.90465e-06
-2.0833e-06
2.47144e-06
-2.50587e-06
2.92936e-06
-2.83118e-06
3.19806e-06
-3.04931e-06
3.26644e-06
-3.19121e-06
3.19297e-06
-3.27745e-06
3.034e-06
-3.31935e-06
2.81836e-06
-3.32874e-06
2.56711e-06
-3.3168e-06
2.30007e-06
-3.29205e-06
2.02954e-06
-3.26109e-06
1.76347e-06
-3.22786e-06
1.50654e-06
-3.19461e-06
1.26023e-06
-3.1622e-06
1.02468e-06
-3.13078e-06
7.98348e-07
-3.09997e-06
5.79295e-07
-3.06915e-06
3.65207e-07
-3.03771e-06
1.53344e-07
-3.00498e-06
-5.89942e-08
-2.97102e-06
-2.74873e-07
-2.93624e-06
-4.97105e-07
-2.90182e-06
-7.29051e-07
-2.86971e-06
-9.74387e-07
-2.84255e-06
-1.2374e-06
-2.82326e-06
-1.52319e-06
-2.81433e-06
-1.83764e-06
-2.81643e-06
-2.1869e-06
-2.82626e-06
-2.57572e-06
-2.83352e-06
-3.00418e-06
-2.81719e-06
-3.46258e-06
-2.74077e-06
-3.92149e-06
-2.55291e-06
-4.30975e-06
-2.21287e-06
-4.46852e-06
-1.63904e-06
-4.24737e-06
-6.0976e-07
-3.24905e-06
-7.79887e-07
-3.78551e-07
5.31068e-07
-8.11425e-07
1.15627e-06
-1.25292e-06
1.74054e-06
-1.69474e-06
2.34647e-06
-2.11476e-06
2.89146e-06
-2.46014e-06
3.27475e-06
-2.69604e-06
3.43395e-06
-2.84809e-06
3.41849e-06
-2.93828e-06
3.28317e-06
-2.98239e-06
3.07812e-06
-2.99163e-06
2.8276e-06
-2.97793e-06
2.55341e-06
-2.95083e-06
2.27296e-06
-2.91712e-06
1.99584e-06
-2.88161e-06
1.72796e-06
-2.84697e-06
1.4719e-06
-2.81457e-06
1.22783e-06
-2.78462e-06
9.9473e-07
-2.7567e-06
7.70432e-07
-2.72995e-06
5.52539e-07
-2.70329e-06
3.38554e-07
-2.67582e-06
1.25866e-07
-2.64667e-06
-8.81374e-08
-2.61565e-06
-3.059e-07
-2.58292e-06
-5.29832e-07
-2.54939e-06
-7.62581e-07
-2.51677e-06
-1.007e-06
-2.48761e-06
-1.26656e-06
-2.46513e-06
-1.54567e-06
-2.4527e-06
-1.85007e-06
-2.45267e-06
-2.18693e-06
-2.46444e-06
-2.56395e-06
-2.48168e-06
-2.98694e-06
-2.48917e-06
-3.4551e-06
-2.4573e-06
-3.95335e-06
-2.33603e-06
-4.43103e-06
-2.07946e-06
-4.72509e-06
-1.63257e-06
-4.69425e-06
-8.70193e-07
-4.01143e-06
-1.65008e-06
-3.95035e-07
9.26103e-07
-8.32477e-07
1.59371e-06
-1.26294e-06
2.171e-06
-1.67461e-06
2.75814e-06
-2.04174e-06
3.25859e-06
-2.30786e-06
3.54087e-06
-2.48324e-06
3.60934e-06
-2.58987e-06
3.52511e-06
-2.64504e-06
3.33834e-06
-2.66255e-06
3.09563e-06
-2.65369e-06
2.81874e-06
-2.62934e-06
2.52906e-06
-2.59719e-06
2.24081e-06
-2.56262e-06
1.96127e-06
-2.52912e-06
1.69446e-06
-2.49846e-06
1.44123e-06
-2.47121e-06
1.20058e-06
-2.44698e-06
9.70501e-07
-2.42488e-06
7.48333e-07
-2.40374e-06
5.314e-07
-2.38234e-06
3.17149e-07
-2.35961e-06
1.03144e-07
-2.33474e-06
-1.13014e-07
-2.30726e-06
-3.33382e-07
-2.27715e-06
-5.5994e-07
-2.24497e-06
-7.94755e-07
-2.21201e-06
-1.03997e-06
-2.18039e-06
-1.29818e-06
-2.15312e-06
-1.57294e-06
-2.13382e-06
-1.86938e-06
-2.12589e-06
-2.19485e-06
-2.13083e-06
-2.55901e-06
-2.14563e-06
-2.97214e-06
-2.15997e-06
-3.44076e-06
-2.15209e-06
-3.96123e-06
-2.07782e-06
-4.50529e-06
-1.86651e-06
-4.93641e-06
-1.50827e-06
-5.05249e-06
-9.20651e-07
-4.59905e-06
-2.57073e-06
-3.8613e-07
1.31223e-06
-8.07835e-07
2.01541e-06
-1.21105e-06
2.57422e-06
-1.58405e-06
3.13114e-06
-1.88892e-06
3.56346e-06
-2.09414e-06
3.74608e-06
-2.22855e-06
3.74376e-06
-2.30308e-06
3.59964e-06
-2.33573e-06
3.37098e-06
-2.3383e-06
3.09821e-06
-2.32156e-06
2.802e-06
-2.29472e-06
2.50222e-06
-2.26394e-06
2.21003e-06
-2.23342e-06
1.93076e-06
-2.20562e-06
1.66666e-06
-2.18151e-06
1.41712e-06
-2.161e-06
1.18008e-06
-2.14329e-06
9.52788e-07
-2.12724e-06
7.32286e-07
-2.11163e-06
5.15785e-07
-2.09527e-06
3.00786e-07
-2.07715e-06
8.50289e-08
-2.05651e-06
-1.33654e-07
-2.03283e-06
-3.57069e-07
-2.0059e-06
-5.86868e-07
-1.97596e-06
-8.24691e-07
-1.9438e-06
-1.07213e-06
-1.91093e-06
-1.33105e-06
-1.87977e-06
-1.6041e-06
-1.85366e-06
-1.89548e-06
-1.83642e-06
-2.21209e-06
-1.83105e-06
-2.56439e-06
-1.83723e-06
-2.96596e-06
-1.84831e-06
-3.42969e-06
-1.84861e-06
-3.96092e-06
-1.80716e-06
-4.54674e-06
-1.64109e-06
-5.10248e-06
-1.34528e-06
-5.3483e-06
-8.23784e-07
-5.12054e-06
-3.39451e-06
-3.57793e-07
1.67003e-06
-7.49171e-07
2.40679e-06
-1.11576e-06
2.94081e-06
-1.44289e-06
3.45827e-06
-1.68577e-06
3.80635e-06
-1.85037e-06
3.91068e-06
-1.95342e-06
3.84681e-06
-2.00669e-06
3.65291e-06
-2.02599e-06
3.39028e-06
-2.02174e-06
3.09396e-06
-2.00366e-06
2.78392e-06
-1.97926e-06
2.47781e-06
-1.95341e-06
2.18418e-06
-1.92933e-06
1.90668e-06
-1.90858e-06
1.64592e-06
-1.8915e-06
1.40003e-06
-1.87754e-06
1.16612e-06
-1.86573e-06
9.40971e-07
-1.85491e-06
7.21471e-07
-1.84398e-06
5.04851e-07
-1.83191e-06
2.88721e-07
-1.81786e-06
7.09761e-08
-1.80116e-06
-1.50352e-07
-1.78131e-06
-3.76916e-07
-1.75801e-06
-6.1017e-07
-1.73123e-06
-8.5147e-07
-1.70132e-06
-1.10204e-06
-1.66916e-06
-1.3632e-06
-1.63646e-06
-1.6368e-06
-1.60589e-06
-1.92605e-06
-1.5811e-06
-2.23687e-06
-1.56594e-06
-2.57955e-06
-1.5623e-06
-2.96961e-06
-1.56653e-06
-3.42545e-06
-1.56691e-06
-3.96054e-06
-1.53993e-06
-4.57372e-06
-1.4211e-06
-5.22131e-06
-1.15954e-06
-5.60986e-06
-7.21117e-07
-5.55896e-06
-4.11563e-06
-3.1655e-07
1.98658e-06
-6.67931e-07
2.75817e-06
-9.91226e-07
3.2641e-06
-1.26721e-06
3.73426e-06
-1.45898e-06
3.99811e-06
-1.59273e-06
4.04443e-06
-1.67288e-06
3.92695e-06
-1.71256e-06
3.69258e-06
-1.72489e-06
3.40261e-06
-1.71902e-06
3.0881e-06
-1.7034e-06
2.76829e-06
-1.68396e-06
2.45837e-06
-1.66454e-06
2.16475e-06
-1.64745e-06
1.88959e-06
-1.63356e-06
1.63203e-06
-1.62275e-06
1.38922e-06
-1.61429e-06
1.15766e-06
-1.60721e-06
9.33884e-07
-1.6005e-06
7.14761e-07
-1.59326e-06
4.97611e-07
-1.58469e-06
2.80155e-07
-1.57413e-06
6.0414e-08
-1.56104e-06
-1.63436e-07
-1.54499e-06
-3.92967e-07
-1.52562e-06
-6.29545e-07
-1.50271e-06
-8.74382e-07
-1.47626e-06
-1.12849e-06
-1.44664e-06
-1.39282e-06
-1.41484e-06
-1.6686e-06
-1.38278e-06
-1.95811e-06
-1.35355e-06
-2.2661e-06
-1.33115e-06
-2.60194e-06
-1.31899e-06
-2.98177e-06
-1.31641e-06
-3.42803e-06
-1.315e-06
-3.96195e-06
-1.29561e-06
-4.59311e-06
-1.21805e-06
-5.29887e-06
-9.86285e-07
-5.84163e-06
-6.1271e-07
-5.93254e-06
-4.72834e-06
-2.67877e-07
2.25445e-06
-5.71302e-07
3.0616e-06
-8.47337e-07
3.54013e-06
-1.07176e-06
3.95868e-06
-1.22623e-06
4.15258e-06
-1.3346e-06
4.15281e-06
-1.39699e-06
3.98934e-06
-1.42771e-06
3.72331e-06
-1.43697e-06
3.41186e-06
-1.43245e-06
3.08358e-06
-1.42109e-06
2.75694e-06
-1.4075e-06
2.44478e-06
-1.39459e-06
2.15185e-06
-1.38393e-06
1.87894e-06
-1.37589e-06
1.62399e-06
-1.3701e-06
1.38344e-06
-1.36585e-06
1.15341e-06
-1.36229e-06
9.30327e-07
-1.35865e-06
7.11124e-07
-1.35426e-06
4.93219e-07
-1.34855e-06
2.7444e-07
-1.34102e-06
5.28891e-08
-1.33129e-06
-1.73165e-07
-1.31899e-06
-4.05271e-07
-1.30375e-06
-6.4479e-07
-1.28523e-06
-8.92897e-07
-1.2632e-06
-1.15052e-06
-1.23761e-06
-1.41841e-06
-1.20889e-06
-1.69733e-06
-1.17823e-06
-1.98877e-06
-1.14802e-06
-2.29632e-06
-1.12196e-06
-2.628e-06
-1.10425e-06
-2.99948e-06
-1.0966e-06
-3.43568e-06
-1.0931e-06
-3.96544e-06
-1.0782e-06
-4.60801e-06
-1.02354e-06
-5.35353e-06
-8.3683e-07
-6.02834e-06
-5.26012e-07
-6.24336e-06
-5.25435e-06
-2.12905e-07
2.46736e-06
-4.65771e-07
3.31446e-06
-6.94707e-07
3.76907e-06
-8.72098e-07
4.13607e-06
-9.95864e-07
4.27635e-06
-1.08118e-06
4.23813e-06
-1.13047e-06
4.03862e-06
-1.15536e-06
3.7482e-06
-1.16374e-06
3.42024e-06
-1.16192e-06
3.08176e-06
-1.15533e-06
2.75034e-06
-1.1474e-06
2.43685e-06
-1.14028e-06
2.14473e-06
-1.13494e-06
1.87359e-06
-1.13144e-06
1.62049e-06
-1.12938e-06
1.38138e-06
-1.12815e-06
1.15217e-06
-1.12711e-06
9.29292e-07
-1.12573e-06
7.09742e-07
-1.12356e-06
4.91044e-07
-1.12022e-06
2.71105e-07
-1.11541e-06
4.80786e-08
-1.10885e-06
-1.79725e-07
-1.10025e-06
-4.13869e-07
-1.08928e-06
-6.55767e-07
-1.07553e-06
-9.06643e-07
-1.05861e-06
-1.16745e-06
-1.03818e-06
-1.43883e-06
-1.01423e-06
-1.72128e-06
-9.87381e-07
-2.01562e-06
-9.59354e-07
-2.32434e-06
-9.33404e-07
-2.65395e-06
-9.14037e-07
-3.01885e-06
-9.04666e-07
-3.44505e-06
-9.02321e-07
-3.96779e-06
-8.94961e-07
-4.61537e-06
-8.60084e-07
-5.38841e-06
-7.11813e-07
-6.17661e-06
-4.41929e-07
-6.51324e-06
-5.69628e-06
-1.58142e-07
2.6255e-06
-3.58341e-07
3.51466e-06
-5.4007e-07
3.9508e-06
-6.74772e-07
4.27077e-06
-7.70829e-07
4.37241e-06
-8.36322e-07
4.30362e-06
-8.75294e-07
4.0776e-06
-8.96188e-07
3.7691e-06
-9.04772e-07
3.42882e-06
-9.05978e-07
3.08296e-06
-9.03846e-07
2.74821e-06
-9.00834e-07
2.43384e-06
-8.98402e-07
2.14229e-06
-8.97108e-07
1.87229e-06
-8.96897e-07
1.62028e-06
-8.97418e-07
1.3819e-06
-8.98234e-07
1.15299e-06
-8.98945e-07
9.30003e-07
-8.99225e-07
7.10022e-07
-8.98825e-07
4.90644e-07
-8.97552e-07
2.69831e-07
-8.95238e-07
4.57643e-08
-8.91719e-07
-1.83243e-07
-8.86795e-07
-4.18793e-07
-8.80174e-07
-6.62388e-07
-8.71459e-07
-9.15358e-07
-8.60155e-07
-1.17875e-06
-8.45746e-07
-1.45324e-06
-8.2788e-07
-1.73914e-06
-8.06702e-07
-2.0368e-06
-7.83342e-07
-2.3477e-06
-7.60473e-07
-2.67682e-06
-7.42513e-07
-3.03681e-06
-7.3412e-07
-3.45345e-06
-7.35243e-07
-3.96667e-06
-7.35801e-07
-4.61481e-06
-7.13215e-07
-5.41099e-06
-6.1031e-07
-6.27952e-06
-3.85726e-07
-6.73782e-06
-6.08201e-06
-1.00019e-07
2.72552e-06
-2.50026e-07
3.66467e-06
-3.85679e-07
4.08645e-06
-4.82651e-07
4.36775e-06
-5.53846e-07
4.4436e-06
-6.01744e-07
4.35152e-06
-6.3178e-07
4.10763e-06
-6.49441e-07
3.78676e-06
-6.5849e-07
3.43787e-06
-6.62438e-07
3.08691e-06
-6.64052e-07
2.74983e-06
-6.64947e-07
2.43474e-06
-6.66035e-07
2.14338e-06
-6.67609e-07
1.87387e-06
-6.69597e-07
1.62227e-06
-6.71775e-07
1.38408e-06
-6.73906e-07
1.15512e-06
-6.75799e-07
9.31896e-07
-6.77324e-07
7.11547e-07
-6.78403e-07
4.91723e-07
-6.78985e-07
2.70414e-07
-6.79028e-07
4.58064e-08
-6.78468e-07
-1.83803e-07
-6.77191e-07
-4.2007e-07
-6.74977e-07
-6.64602e-07
-6.71465e-07
-9.1887e-07
-6.66141e-07
-1.18407e-06
-6.58387e-07
-1.46099e-06
-6.47632e-07
-1.7499e-06
-6.33666e-07
-2.05077e-06
-6.17123e-07
-2.36425e-06
-6.00095e-07
-2.69385e-06
-5.86642e-07
-3.05026e-06
-5.82095e-07
-3.45799e-06
-5.88981e-07
-3.95978e-06
-5.995e-07
-4.60429e-06
-5.91251e-07
-5.41924e-06
-5.20784e-07
-6.34998e-06
-3.33007e-07
-6.9256e-06
-6.41502e-06
-4.76898e-08
2.77321e-06
-1.44678e-07
3.76166e-06
-2.34645e-07
4.17642e-06
-2.97712e-07
4.43081e-06
-3.45347e-07
4.49124e-06
-3.77208e-07
4.38338e-06
-3.99019e-07
4.12944e-06
-4.13559e-07
3.8013e-06
-4.22799e-07
3.44711e-06
-4.28854e-07
3.09297e-06
-4.33328e-07
2.7543e-06
-4.37097e-07
2.43851e-06
-4.40628e-07
2.14691e-06
-4.44063e-07
1.8773e-06
-4.47381e-07
1.62559e-06
-4.50511e-07
1.38721e-06
-4.53411e-07
1.15802e-06
-4.56083e-07
9.34568e-07
-4.58567e-07
7.14031e-07
-4.60928e-07
4.94084e-07
-4.63237e-07
2.72723e-07
-4.65553e-07
4.81222e-08
-4.67903e-07
-1.81453e-07
-4.70258e-07
-4.17716e-07
-4.72478e-07
-6.62382e-07
-4.74271e-07
-9.17076e-07
-4.75163e-07
-1.18318e-06
-4.7451e-07
-1.46165e-06
-4.71618e-07
-1.75279e-06
-4.66016e-07
-2.05637e-06
-4.57928e-07
-2.37233e-06
-4.48921e-07
-2.70286e-06
-4.42595e-07
-3.05659e-06
-4.4447e-07
-3.45612e-06
-4.5879e-07
-3.94546e-06
-4.80059e-07
-4.58303e-06
-4.88958e-07
-5.41034e-06
-4.48401e-07
-6.39054e-06
-2.95286e-07
-7.07872e-06
-6.7103e-06
1.02409e-08
2.76297e-06
-3.90028e-08
3.8109e-06
-8.79888e-08
4.22541e-06
-1.20705e-07
4.46353e-06
-1.45123e-07
4.51566e-06
-1.61946e-07
4.4002e-06
-1.75447e-07
4.14294e-06
-1.86473e-07
3.81233e-06
-1.95344e-07
3.45598e-06
-2.02721e-07
3.10034e-06
-2.09145e-07
2.76072e-06
-2.14854e-07
2.44422e-06
-2.19915e-07
2.15197e-06
-2.24409e-07
1.8818e-06
-2.28392e-07
1.62957e-06
-2.31947e-07
1.39076e-06
-2.35218e-07
1.16129e-06
-2.3838e-07
9.37729e-07
-2.41623e-07
7.17274e-07
-2.45135e-07
4.97596e-07
-2.49089e-07
2.76677e-07
-2.53632e-07
5.26658e-08
-2.5887e-07
-1.76215e-07
-2.64853e-07
-4.11733e-07
-2.71528e-07
-6.55706e-07
-2.78692e-07
-9.09912e-07
-2.85951e-07
-1.17592e-06
-2.92708e-07
-1.45489e-06
-2.98236e-07
-1.74726e-06
-3.01901e-07
-2.0527e-06
-3.03596e-07
-2.37064e-06
-3.04402e-07
-2.70205e-06
-3.07421e-07
-3.05357e-06
-3.1804e-07
-3.4455e-06
-3.41602e-07
-3.9219e-06
-3.75073e-07
-4.54955e-06
-4.01133e-07
-5.38428e-06
-3.85228e-07
-6.40645e-06
-2.60672e-07
-7.20327e-06
-6.97098e-06
6.24836e-08
2.70049e-06
6.33128e-08
3.81007e-06
5.32577e-08
4.23546e-06
4.93907e-08
4.4674e-06
4.80344e-08
4.51701e-06
4.5367e-08
4.40287e-06
4.06539e-08
4.14766e-06
3.38533e-08
3.81913e-06
2.61737e-08
3.46366e-06
1.83701e-08
3.10815e-06
1.09483e-08
2.76815e-06
4.23863e-09
2.45093e-06
-1.68919e-09
2.1579e-06
-6.71613e-09
1.88683e-06
-1.08984e-08
1.63375e-06
-1.45032e-08
1.39437e-06
-1.78563e-08
1.16464e-06
-2.12966e-08
9.4117e-07
-2.51512e-08
7.21129e-07
-2.97193e-08
5.02164e-07
-3.52651e-08
2.82223e-07
-4.20125e-08
5.94133e-08
-5.01368e-08
-1.68091e-07
-5.97595e-08
-4.0211e-07
-7.0911e-08
-6.44555e-07
-8.34868e-08
-8.97336e-07
-9.72081e-08
-1.1622e-06
-1.11583e-07
-1.44051e-06
-1.2593e-07
-1.73291e-06
-1.3955e-07
-2.03908e-06
-1.52112e-07
-2.35808e-06
-1.64146e-07
-2.69002e-06
-1.78329e-07
-3.03938e-06
-1.99665e-07
-3.42416e-06
-2.34112e-07
-3.88745e-06
-2.81073e-07
-4.50259e-06
-3.25077e-07
-5.34028e-06
-3.34064e-07
-6.39746e-06
-2.34852e-07
-7.30248e-06
-7.20583e-06
1.15473e-07
2.58501e-06
1.63523e-07
3.76202e-06
1.91061e-07
4.20792e-06
2.1643e-07
4.44203e-06
2.38738e-07
4.4947e-06
2.50285e-07
4.39132e-06
2.52776e-07
4.14517e-06
2.50045e-07
3.82186e-06
2.44051e-07
3.46966e-06
2.36528e-07
3.11567e-06
2.28738e-07
2.77594e-06
2.21565e-07
2.4581e-06
2.15506e-07
2.16396e-06
2.1062e-07
1.89171e-06
2.06693e-07
1.63768e-06
2.0336e-07
1.3977e-06
2.0016e-07
1.16784e-06
1.96616e-07
9.44714e-07
1.92276e-07
7.25468e-07
1.86737e-07
5.07703e-07
1.79648e-07
2.89312e-07
1.70712e-07
6.8349e-08
1.59689e-07
-1.57068e-07
1.46397e-07
-3.88818e-07
1.30729e-07
-6.28886e-07
1.12688e-07
-8.79295e-07
9.24224e-08
-1.14194e-06
7.02888e-08
-1.41838e-06
4.68586e-08
-1.70948e-06
2.2836e-08
-2.01506e-06
-1.24276e-09
-2.334e-06
-2.59682e-08
-2.66529e-06
-5.29726e-08
-3.01238e-06
-8.68485e-08
-3.39029e-06
-1.33827e-07
-3.84047e-06
-1.95107e-07
-4.44131e-06
-2.56289e-07
-5.2791e-06
-2.88207e-07
-6.36554e-06
-2.11851e-07
-7.37884e-06
-7.41768e-06
1.68008e-07
2.417e-06
2.61954e-07
3.66808e-06
3.24356e-07
4.14552e-06
3.76747e-07
4.38964e-06
4.21373e-07
4.45008e-06
4.4898e-07
4.36371e-06
4.60265e-07
4.13388e-06
4.6307e-07
3.81905e-06
4.60008e-07
3.47272e-06
4.53816e-07
3.12186e-06
4.46597e-07
2.78316e-06
4.39746e-07
2.46495e-06
4.33989e-07
2.16972e-06
4.29525e-07
1.89618e-06
4.26119e-07
1.64108e-06
4.2329e-07
1.40053e-06
4.20438e-07
1.1707e-06
4.1695e-07
9.48202e-07
4.12253e-07
7.30165e-07
4.0584e-07
5.14117e-07
3.97272e-07
2.9788e-07
3.86181e-07
7.94398e-08
3.72264e-07
-1.4315e-07
3.55282e-07
-3.71837e-07
3.35052e-07
-6.08656e-07
3.11468e-07
-8.55711e-07
2.8455e-07
-1.11502e-06
2.54488e-07
-1.38832e-06
2.21666e-07
-1.67666e-06
1.86644e-07
-1.98004e-06
1.49962e-07
-2.29731e-06
1.11855e-07
-2.62718e-06
7.07842e-08
-2.97131e-06
2.2746e-08
-3.34225e-06
-3.8531e-08
-3.7792e-06
-1.15611e-07
-4.36423e-06
-1.94522e-07
-5.20019e-06
-2.46151e-07
-6.31391e-06
-1.95195e-07
-7.42979e-06
-7.61287e-06
2.18314e-07
2.19869e-06
3.57739e-07
3.52865e-06
4.54023e-07
4.04924e-06
5.32681e-07
4.31098e-06
5.97098e-07
4.38566e-06
6.42603e-07
4.31821e-06
6.64618e-07
4.11187e-06
6.74279e-07
3.80939e-06
6.75447e-07
3.47155e-06
6.71755e-07
3.12555e-06
6.6605e-07
2.78886e-06
6.60239e-07
2.47076e-06
6.55363e-07
2.17459e-06
6.51748e-07
1.89979e-06
6.49169e-07
1.64366e-06
6.47073e-07
1.40263e-06
6.44754e-07
1.17301e-06
6.4148e-07
9.51476e-07
6.36562e-07
7.35082e-07
6.29391e-07
5.21288e-07
6.1944e-07
3.07831e-07
6.06265e-07
9.26148e-08
5.89492e-07
-1.26377e-07
5.68818e-07
-3.51163e-07
5.43981e-07
-5.83819e-07
5.14773e-07
-8.26503e-07
4.81081e-07
-1.08133e-06
4.42904e-07
-1.35014e-06
4.00416e-07
-1.63418e-06
3.5403e-07
-1.93365e-06
3.04287e-07
-2.24757e-06
2.51536e-07
-2.57443e-06
1.94991e-07
-2.91476e-06
1.31262e-07
-3.27852e-06
5.41151e-08
-3.70205e-06
-4.0228e-08
-4.26989e-06
-1.38479e-07
-5.10194e-06
-2.0854e-07
-6.24385e-06
-1.80283e-07
-7.45805e-06
-7.79316e-06
2.66031e-07
1.93266e-06
4.49507e-07
3.34518e-06
5.78755e-07
3.91999e-06
6.83539e-07
4.20619e-06
7.66627e-07
4.30257e-06
8.30343e-07
4.25449e-06
8.65978e-07
4.07623e-06
8.84243e-07
3.79113e-06
8.91227e-07
3.46457e-06
8.91492e-07
3.12529e-06
8.88523e-07
2.79183e-06
8.8471e-07
2.47458e-06
8.81419e-07
2.17788e-06
8.79148e-07
1.90206e-06
8.77745e-07
1.64507e-06
8.76643e-07
1.40373e-06
8.75065e-07
1.17459e-06
8.72182e-07
9.54359e-07
8.67203e-07
7.40062e-07
8.59414e-07
5.29077e-07
8.48197e-07
3.19048e-07
8.33028e-07
1.07783e-07
8.13457e-07
-1.06806e-07
7.89102e-07
-3.26808e-07
7.59622e-07
-5.54339e-07
7.24694e-07
-7.91576e-07
6.84048e-07
-1.04068e-06
6.37495e-07
-1.30359e-06
5.85015e-07
-1.5817e-06
5.26805e-07
-1.87544e-06
4.63273e-07
-2.18404e-06
3.94915e-07
-2.50607e-06
3.21553e-07
-2.8414e-06
2.40619e-07
-3.19759e-06
1.4606e-07
-3.60749e-06
3.29915e-08
-4.15682e-06
-8.56396e-08
-4.9833e-06
-1.7554e-07
-6.15395e-06
-1.69037e-07
-7.46455e-06
-7.96219e-06
3.08956e-07
1.6237e-06
5.34559e-07
3.11957e-06
6.95826e-07
3.75872e-06
8.2512e-07
4.0769e-06
9.29176e-07
4.19852e-06
1.01131e-06
4.17236e-06
1.06349e-06
4.02405e-06
1.09274e-06
3.76188e-06
1.10762e-06
3.44969e-06
1.11371e-06
3.1192e-06
1.11507e-06
2.79047e-06
1.11452e-06
2.47512e-06
1.11377e-06
2.17863e-06
1.11354e-06
1.90229e-06
1.11382e-06
1.64479e-06
1.11408e-06
1.40347e-06
1.11353e-06
1.17514e-06
1.11127e-06
9.56615e-07
1.10643e-06
7.44903e-07
1.0982e-06
5.37309e-07
1.08586e-06
3.31384e-07
1.06882e-06
1.24831e-07
1.04652e-06
-8.45123e-08
1.0185e-06
-2.98782e-07
9.84299e-07
-5.2014e-07
9.43501e-07
-7.50778e-07
8.95685e-07
-9.92866e-07
8.40463e-07
-1.24837e-06
7.77539e-07
-1.51877e-06
7.06846e-07
-1.80475e-06
6.28696e-07
-2.10589e-06
5.43729e-07
-2.42111e-06
4.52236e-07
-2.74991e-06
3.52465e-07
-3.09782e-06
2.39092e-07
-3.49412e-06
1.06887e-07
-4.02462e-06
-3.14401e-08
-4.84498e-06
-1.39232e-07
-6.04616e-06
-1.55618e-07
-7.44817e-06
-8.11781e-06
3.42804e-07
1.2809e-06
6.07688e-07
2.85469e-06
8.01038e-07
3.56537e-06
9.55351e-07
3.92259e-06
1.08162e-06
4.07225e-06
1.18185e-06
4.07213e-06
1.25365e-06
3.95225e-06
1.2977e-06
3.71783e-06
1.32365e-06
3.42374e-06
1.33819e-06
3.10465e-06
1.34608e-06
2.78259e-06
1.35059e-06
2.47061e-06
1.35378e-06
2.17544e-06
1.35666e-06
1.89941e-06
1.35939e-06
1.64205e-06
1.36158e-06
1.40128e-06
1.36248e-06
1.17425e-06
1.36117e-06
9.57922e-07
1.35673e-06
7.49341e-07
1.34828e-06
5.45762e-07
1.335e-06
3.44657e-07
1.31622e-06
1.43616e-07
1.2913e-06
-5.95879e-08
1.25962e-06
-2.67104e-07
1.22063e-06
-4.81152e-07
1.17379e-06
-7.03936e-07
1.1185e-06
-9.37578e-07
1.05416e-06
-1.18403e-06
9.80216e-07
-1.44483e-06
8.96344e-07
-1.72088e-06
8.02656e-07
-2.0122e-06
6.99839e-07
-2.31829e-06
5.88681e-07
-2.63875e-06
4.68295e-07
-2.97743e-06
3.3418e-07
-3.36e-06
1.81133e-07
-3.87157e-06
2.16754e-08
-4.68552e-06
-1.09587e-07
-5.9149e-06
-1.47382e-07
-7.41037e-06
-8.26519e-06
3.59118e-07
9.21781e-07
6.61078e-07
2.55273e-06
8.89244e-07
3.33721e-06
1.06974e-06
3.74209e-06
1.21842e-06
3.92357e-06
1.33956e-06
3.95099e-06
1.43299e-06
3.85882e-06
1.49596e-06
3.65486e-06
1.53705e-06
3.38264e-06
1.56364e-06
3.07807e-06
1.5811e-06
2.76512e-06
1.5932e-06
2.45851e-06
1.60237e-06
2.16628e-06
1.60992e-06
1.89186e-06
1.6163e-06
1.63568e-06
1.62129e-06
1.39628e-06
1.62428e-06
1.17126e-06
1.6244e-06
9.57795e-07
1.62074e-06
7.53007e-07
1.61235e-06
5.54149e-07
1.59837e-06
3.58639e-07
1.57802e-06
1.63963e-07
1.55054e-06
-3.21029e-08
1.51521e-06
-2.31779e-07
1.47135e-06
-4.37286e-07
1.41823e-06
-6.50824e-07
1.35509e-06
-8.74434e-07
1.28108e-06
-1.11002e-06
1.1954e-06
-1.35914e-06
1.09745e-06
-1.62294e-06
9.87155e-07
-1.9019e-06
8.6515e-07
-2.19628e-06
7.32632e-07
-2.50623e-06
5.89761e-07
-2.83456e-06
4.32726e-07
-3.20297e-06
2.56302e-07
-3.69515e-06
7.11505e-08
-4.50037e-06
-8.01218e-08
-5.76362e-06
-1.36532e-07
-7.35396e-06
-8.40173e-06
3.43481e-07
5.783e-07
6.85447e-07
2.21076e-06
9.52699e-07
3.06996e-06
1.16189e-06
3.5329e-06
1.33402e-06
3.75144e-06
1.47871e-06
3.8063e-06
1.59613e-06
3.7414e-06
1.68267e-06
3.56832e-06
1.74399e-06
3.32132e-06
1.78731e-06
3.03475e-06
1.81845e-06
2.73398e-06
1.8416e-06
2.43535e-06
1.85959e-06
2.14829e-06
1.8741e-06
1.87736e-06
1.88589e-06
1.62389e-06
1.89503e-06
1.38714e-06
1.9011e-06
1.16519e-06
1.9034e-06
9.55503e-07
1.90104e-06
7.55361e-07
1.89311e-06
5.62082e-07
1.8787e-06
3.73049e-07
1.857e-06
1.85661e-07
1.82699e-06
-2.09365e-09
1.788e-06
-1.92788e-07
1.7391e-06
-3.88382e-07
1.6794e-06
-5.91123e-07
1.60789e-06
-8.0293e-07
1.52352e-06
-1.02564e-06
1.4252e-06
-1.26083e-06
1.31213e-06
-1.50987e-06
1.18401e-06
-1.77378e-06
1.04146e-06
-2.05373e-06
8.85811e-07
-2.35058e-06
7.18239e-07
-2.66699e-06
5.36001e-07
-3.02073e-06
3.34286e-07
-3.49343e-06
1.23345e-07
-4.28943e-06
-5.36976e-08
-5.58658e-06
-1.31101e-07
-7.27656e-06
-8.53283e-06
2.80063e-07
2.98237e-07
6.76333e-07
1.81449e-06
9.82734e-07
2.76355e-06
1.22331e-06
3.29232e-06
1.42162e-06
3.55313e-06
1.59207e-06
3.63584e-06
1.73678e-06
3.5967e-06
1.85161e-06
3.45348e-06
1.93902e-06
3.23391e-06
2.00483e-06
2.96894e-06
2.05482e-06
2.68399e-06
2.09355e-06
2.39663e-06
2.12418e-06
2.11765e-06
2.14879e-06
1.85275e-06
2.16852e-06
1.60417e-06
2.18377e-06
1.37189e-06
2.19442e-06
1.15453e-06
2.19998e-06
9.49942e-07
2.19973e-06
7.55608e-07
2.19281e-06
5.69003e-07
2.17835e-06
3.87514e-07
2.15541e-06
2.08594e-07
2.12311e-06
3.02128e-08
2.08031e-06
-1.49989e-07
2.02613e-06
-3.34199e-07
1.95941e-06
-5.24407e-07
1.87892e-06
-7.22439e-07
1.78335e-06
-9.30078e-07
1.67141e-06
-1.14888e-06
1.54207e-06
-1.38053e-06
1.39488e-06
-1.62659e-06
1.23038e-06
-1.88923e-06