/*--------------------------------*- C++ -*----------------------------------*\
  =========                 |
  \\      /  F ield         | OpenFOAM: The Open Source CFD Toolbox
   \\    /   O peration     | Website:  https://openfoam.org
    \\  /    A nd           | Version:  12
     \\/     M anipulation  |
\*---------------------------------------------------------------------------*/
FoamFile
{
    format      ascii;
    class       volVectorField;
    location    "5.5";
    object      U;
}
// * * * * * * * * * * * * * * * * * * * * * * * * * * * * * * * * * * * * * //

dimensions      [0 1 -1 0 0 0 0];

internalField   nonuniform List<vector> 
1600
(
(0.00113834 -0.000998144 0)
(0.00585975 -0.00156127 0)
(0.0104537 -0.00132775 0)
(0.0133278 -0.000334087 0)
(0.0138186 0.000241031 0)
(0.0133846 0.000103554 0)
(0.0127239 -0.000524756 0)
(0.0124888 -0.0010195 0)
(0.0120719 -0.00108613 0)
(0.0109711 -0.000892223 0)
(0.00861344 -0.000765515 0)
(0.00309095 -0.000264122 0)
(-0.00705005 0.00132091 0)
(-0.0184944 0.00616896 0)
(-0.0394113 0.0119289 0)
(-0.0644309 0.0130506 0)
(-0.085954 0.0120609 0)
(-0.105354 0.0106828 0)
(-0.121247 0.0090465 0)
(-0.134554 0.00747401 0)
(-0.14484 0.00590898 0)
(-0.152577 0.004412 0)
(-0.157348 0.00294873 0)
(-0.159437 0.00156781 0)
(-0.159269 -0.000514778 0)
(-0.155246 -0.00215797 0)
(-0.148587 -0.00432705 0)
(-0.137752 -0.00621301 0)
(-0.123599 -0.00841781 0)
(-0.105632 -0.0106358 0)
(-0.0845044 -0.012902 0)
(-0.0604328 -0.0144298 0)
(-0.0348252 -0.0147578 0)
(-0.00852275 -0.0134188 0)
(0.0127497 -0.0113617 0)
(0.0285913 -0.00425155 0)
(0.0299641 0.00320108 0)
(0.0236454 0.00511856 0)
(0.0112352 0.00420667 0)
(0.00234902 0.00289319 0)
(0.00206458 -0.00580292 0)
(0.0100695 -0.00872303 0)
(0.0154259 -0.0065243 0)
(0.0184638 -0.00274735 0)
(0.0188874 0.000186201 0)
(0.0170791 0.00139597 0)
(0.0137357 0.00139455 0)
(0.00913652 0.00163792 0)
(0.00215444 0.00294378 0)
(-0.00905976 0.00536663 0)
(-0.0251591 0.00987057 0)
(-0.0496871 0.0180193 0)
(-0.0790244 0.0264368 0)
(-0.10583 0.0327041 0)
(-0.127966 0.0338168 0)
(-0.146842 0.0316103 0)
(-0.162555 0.0281534 0)
(-0.175792 0.0240465 0)
(-0.186322 0.0198854 0)
(-0.194675 0.0157697 0)
(-0.200622 0.0117749 0)
(-0.204494 0.00783984 0)
(-0.206122 0.00390551 0)
(-0.205644 -0.00016269 0)
(-0.202878 -0.00461285 0)
(-0.19772 -0.00928408 0)
(-0.189947 -0.0142978 0)
(-0.179259 -0.0196185 0)
(-0.165396 -0.0252524 0)
(-0.147681 -0.0307648 0)
(-0.126633 -0.0358813 0)
(-0.102928 -0.0400257 0)
(-0.0765561 -0.0411801 0)
(-0.0490977 -0.0382898 0)
(-0.0225416 -0.0301446 0)
(0.000502442 -0.0142307 0)
(0.016224 0.0037448 0)
(0.016229 0.011226 0)
(0.00961829 0.0135686 0)
(0.00149059 0.0102283 0)
(0.00323137 -0.0132955 0)
(0.0110431 -0.015656 0)
(0.0141583 -0.0105343 0)
(0.0149317 -0.00351103 0)
(0.0130002 0.00182995 0)
(0.00851067 0.00488716 0)
(0.000589745 0.00704488 0)
(-0.0117037 0.0109904 0)
(-0.0299448 0.0185959 0)
(-0.0550371 0.0293551 0)
(-0.0836722 0.0403613 0)
(-0.110311 0.0474329 0)
(-0.133669 0.0508526 0)
(-0.152215 0.0511237 0)
(-0.167345 0.0485276 0)
(-0.179578 0.0442125 0)
(-0.189452 0.0388571 0)
(-0.197442 0.0330697 0)
(-0.203728 0.027193 0)
(-0.20856 0.0214066 0)
(-0.21207 0.0154144 0)
(-0.214133 0.00977626 0)
(-0.214709 0.00402853 0)
(-0.213736 -0.00177661 0)
(-0.211124 -0.00792604 0)
(-0.206917 -0.0144725 0)
(-0.200948 -0.0217643 0)
(-0.192983 -0.0298113 0)
(-0.182857 -0.0387628 0)
(-0.170224 -0.0480256 0)
(-0.1546 -0.057048 0)
(-0.135454 -0.0643396 0)
(-0.112998 -0.0678425 0)
(-0.0879394 -0.0660633 0)
(-0.0609475 -0.0559818 0)
(-0.0330857 -0.0357411 0)
(-0.00635555 -0.00609945 0)
(0.00172381 0.0113459 0)
(0.0019344 0.0177158 0)
(-0.000148485 0.0137439 0)
(0.00377291 -0.0214054 0)
(0.00809794 -0.0198111 0)
(0.00824555 -0.0109376 0)
(0.0053935 -0.000990415 0)
(-0.000270408 0.00695874 0)
(-0.00989045 0.0138505 0)
(-0.0248242 0.021744 0)
(-0.0455699 0.0323376 0)
(-0.0709817 0.0449692 0)
(-0.0985961 0.0567362 0)
(-0.123899 0.0647983 0)
(-0.143829 0.0680862 0)
(-0.159613 0.0678487 0)
(-0.171477 0.0647071 0)
(-0.181041 0.0596753 0)
(-0.188444 0.0535113 0)
(-0.194394 0.0466946 0)
(-0.199353 0.039319 0)
(-0.203526 0.0318913 0)
(-0.206743 0.0245451 0)
(-0.208879 0.017613 0)
(-0.209947 0.0105731 0)
(-0.209981 0.00353518 0)
(-0.209016 -0.00370692 0)
(-0.207015 -0.0112119 0)
(-0.203863 -0.0192078 0)
(-0.199479 -0.027849 0)
(-0.193722 -0.0372663 0)
(-0.186424 -0.0475086 0)
(-0.177495 -0.0588919 0)
(-0.166827 -0.0709173 0)
(-0.154106 -0.0826839 0)
(-0.138725 -0.0916974 0)
(-0.11865 -0.0939955 0)
(-0.0935518 -0.0856914 0)
(-0.0642259 -0.0644054 0)
(-0.0288044 -0.0271009 0)
(-0.00704578 0.00406965 0)
(-0.0019583 0.0157358 0)
(-0.000163765 0.0133948 0)
(0.00231618 -0.0256316 0)
(0.00296219 -0.0198673 0)
(-0.00111223 -0.00693823 0)
(-0.00788147 0.00577731 0)
(-0.0182456 0.0175968 0)
(-0.033284 0.0295465 0)
(-0.0536134 0.0429325 0)
(-0.0780141 0.0574818 0)
(-0.103586 0.0707244 0)
(-0.126773 0.079776 0)
(-0.144481 0.0832297 0)
(-0.157869 0.082691 0)
(-0.168097 0.079267 0)
(-0.175621 0.0736966 0)
(-0.181557 0.0668414 0)
(-0.186286 0.0589329 0)
(-0.190269 0.0506953 0)
(-0.193225 0.0425221 0)
(-0.195087 0.0344639 0)
(-0.196055 0.0264878 0)
(-0.196459 0.0186663 0)
(-0.196301 0.0108698 0)
(-0.195681 0.00306958 0)
(-0.194565 -0.00493718 0)
(-0.192865 -0.0132878 0)
(-0.190528 -0.0222181 0)
(-0.187562 -0.0319178 0)
(-0.183884 -0.0425577 0)
(-0.179405 -0.0542049 0)
(-0.173957 -0.0667604 0)
(-0.167276 -0.079918 0)
(-0.158941 -0.092962 0)
(-0.148765 -0.105486 0)
(-0.1357 -0.114213 0)
(-0.117146 -0.113689 0)
(-0.0905262 -0.0976666 0)
(-0.0559406 -0.0632328 0)
(-0.0167725 -0.0137129 0)
(-0.00200599 0.0104243 0)
(0.00078334 0.0126583 0)
(-0.000339 -0.0264017 0)
(-0.00411321 -0.0151198 0)
(-0.0120101 0.000833343 0)
(-0.0227054 0.0169888 0)
(-0.0373141 0.0330874 0)
(-0.0562394 0.0496039 0)
(-0.0787 0.0663244 0)
(-0.102279 0.0813835 0)
(-0.123714 0.0921113 0)
(-0.140016 0.0965055 0)
(-0.151718 0.0959577 0)
(-0.160592 0.0923722 0)
(-0.166967 0.0864529 0)
(-0.171611 0.0790384 0)
(-0.17506 0.0706737 0)
(-0.177081 0.0619408 0)
(-0.178287 0.0530123 0)
(-0.178693 0.0440994 0)
(-0.178769 0.0353444 0)
(-0.178648 0.0268363 0)
(-0.178158 0.018567 0)
(-0.17741 0.0104019 0)
(-0.17638 0.00224883 0)
(-0.175069 -0.00607091 0)
(-0.173459 -0.0147271 0)
(-0.171582 -0.0239536 0)
(-0.169468 -0.0339632 0)
(-0.16713 -0.0449846 0)
(-0.164558 -0.0572019 0)
(-0.161692 -0.0706913 0)
(-0.158365 -0.085266 0)
(-0.154203 -0.100322 0)
(-0.148522 -0.114593 0)
(-0.140201 -0.126276 0)
(-0.127843 -0.13293 0)
(-0.108606 -0.127385 0)
(-0.0796678 -0.102252 0)
(-0.0375065 -0.0514486 0)
(-0.00493501 -0.00211368 0)
(0.00161317 0.0120016 0)
(-0.00332285 -0.0215466 0)
(-0.0112747 -0.00657715 0)
(-0.0225101 0.0122964 0)
(-0.0366254 0.0318505 0)
(-0.0542866 0.0516926 0)
(-0.0747657 0.0710119 0)
(-0.0964099 0.0883772 0)
(-0.116541 0.101405 0)
(-0.132054 0.107738 0)
(-0.142679 0.107896 0)
(-0.15036 0.104439 0)
(-0.155717 0.0984204 0)
(-0.159133 0.0906406 0)
(-0.16115 0.0818387 0)
(-0.162019 0.0724288 0)
(-0.16219 0.0628124 0)
(-0.161907 0.0532539 0)
(-0.161329 0.0439347 0)
(-0.160611 0.034927 0)
(-0.159736 0.0262079 0)
(-0.158705 0.0177263 0)
(-0.157549 0.00937126 0)
(-0.156254 0.00102825 0)
(-0.154829 -0.00745318 0)
(-0.153283 -0.0162441 0)
(-0.151657 -0.0255457 0)
(-0.150002 -0.0355635 0)
(-0.148377 -0.046517 0)
(-0.14683 -0.0586178 0)
(-0.145377 -0.0720374 0)
(-0.143964 -0.0868242 0)
(-0.142374 -0.102746 0)
(-0.14004 -0.119056 0)
(-0.135859 -0.13405 0)
(-0.128161 -0.144931 0)
(-0.114987 -0.147744 0)
(-0.0940417 -0.134972 0)
(-0.0614227 -0.0964981 0)
(-0.0142062 -0.0237116 0)
(0.00254029 0.0108675 0)
(-0.0059857 -0.0128834 0)
(-0.0172205 0.00573029 0)
(-0.0310853 0.0268214 0)
(-0.0478585 0.049211 0)
(-0.0668413 0.0713085 0)
(-0.0868601 0.0913287 0)
(-0.106017 0.107241 0)
(-0.121409 0.116495 0)
(-0.131624 0.118293 0)
(-0.138543 0.115414 0)
(-0.143185 0.109581 0)
(-0.14586 0.101636 0)
(-0.147059 0.0923954 0)
(-0.147252 0.0824855 0)
(-0.146755 0.0723195 0)
(-0.145914 0.0622402 0)
(-0.144877 0.0524229 0)
(-0.143758 0.0429701 0)
(-0.142593 0.0338761 0)
(-0.141384 0.0250884 0)
(-0.140136 0.016531 0)
(-0.138838 0.00809534 0)
(-0.137484 -0.000331395 0)
(-0.136066 -0.00888647 0)
(-0.134601 -0.0177276 0)
(-0.133128 -0.0270301 0)
(-0.131711 -0.0369854 0)
(-0.130432 -0.0478032 0)
(-0.129384 -0.0597011 0)
(-0.128637 -0.0728799 0)
(-0.128207 -0.0874666 0)
(-0.127973 -0.103415 0)
(-0.127536 -0.120336 0)
(-0.125971 -0.137244 0)
(-0.121759 -0.152021 0)
(-0.113061 -0.160808 0)
(-0.0981112 -0.157608 0)
(-0.0736957 -0.133123 0)
(-0.0321217 -0.0665488 0)
(0.000371707 0.000230617 0)
(-0.00760126 -0.000704649 0)
(-0.0215328 0.0209047 0)
(-0.0372249 0.0434802 0)
(-0.0552221 0.0674247 0)
(-0.0741323 0.0901727 0)
(-0.0925795 0.109348 0)
(-0.108402 0.12233 0)
(-0.118907 0.126874 0)
(-0.12573 0.125317 0)
(-0.130035 0.120006 0)
(-0.132445 0.112212 0)
(-0.133277 0.102756 0)
(-0.133094 0.0924499 0)
(-0.132267 0.081839 0)
(-0.131088 0.0712836 0)
(-0.12978 0.0610216 0)
(-0.128436 0.0511463 0)
(-0.127122 0.0416909 0)
(-0.125849 0.0326054 0)
(-0.124611 0.0238211 0)
(-0.123388 0.0152532 0)
(-0.122149 0.00678826 0)
(-0.120868 -0.00168195 0)
(-0.119531 -0.0102765 0)
(-0.118148 -0.0191335 0)
(-0.116749 -0.0283969 0)
(-0.115399 -0.0382314 0)
(-0.114193 -0.0488266 0)
(-0.113247 -0.0604011 0)
(-0.112682 -0.0731951 0)
(-0.112577 -0.0874338 0)
(-0.11291 -0.103241 0)
(-0.113439 -0.120494 0)
(-0.11349 -0.138602 0)
(-0.111672 -0.156048 0)
(-0.106146 -0.169613 0)
(-0.0956131 -0.173326 0)
(-0.0774943 -0.160199 0)
(-0.0484653 -0.111989 0)
(-0.00667991 -0.0146108 0)
(-0.00855479 0.0136894 0)
(-0.0240685 0.0376534 0)
(-0.0405007 0.0609702 0)
(-0.0586957 0.085325 0)
(-0.0766727 0.107684 0)
(-0.0930611 0.124807 0)
(-0.104514 0.133178 0)
(-0.11199 0.134088 0)
(-0.116458 0.129838 0)
(-0.118939 0.122511 0)
(-0.119838 0.113137 0)
(-0.119576 0.102574 0)
(-0.118662 0.0915799 0)
(-0.117376 0.0805905 0)
(-0.115954 0.0698847 0)
(-0.114537 0.0596051 0)
(-0.113192 0.0497828 0)
(-0.111951 0.0403987 0)
(-0.110805 0.031379 0)
(-0.109724 0.0226361 0)
(-0.108668 0.0140733 0)
(-0.107596 0.00558387 0)
(-0.106467 -0.00293994 0)
(-0.105265 -0.0116003 0)
(-0.103983 -0.0205074 0)
(-0.102646 -0.0297785 0)
(-0.101306 -0.0395432 0)
(-0.10005 -0.0499578 0)
(-0.0989994 -0.0612163 0)
(-0.0982938 -0.07356 0)
(-0.0980614 -0.0872686 0)
(-0.098359 -0.102611 0)
(-0.0990853 -0.11973 0)
(-0.0998252 -0.138455 0)
(-0.0994747 -0.157925 0)
(-0.0960662 -0.175536 0)
(-0.0886132 -0.184798 0)
(-0.0747069 -0.180541 0)
(-0.0524977 -0.14618 0)
(-0.0152817 -0.041262 0)
(-0.00895603 0.0291576 0)
(-0.0249721 0.055065 0)
(-0.0412196 0.0783962 0)
(-0.0588004 0.102377 0)
(-0.0754259 0.123368 0)
(-0.088708 0.136844 0)
(-0.0968415 0.141138 0)
(-0.102476 0.139128 0)
(-0.105257 0.132634 0)
(-0.10656 0.123643 0)
(-0.106552 0.113048 0)
(-0.105754 0.101731 0)
(-0.104552 0.0903254 0)
(-0.103167 0.0791673 0)
(-0.101784 0.0684557 0)
(-0.100496 0.0582575 0)
(-0.0993427 0.0485552 0)
(-0.0983259 0.0392865 0)
(-0.0974149 0.0303549 0)
(-0.0965659 0.0216578 0)
(-0.0957289 0.0130936 0)
(-0.0948562 0.00456147 0)
(-0.0939107 -0.00403818 0)
(-0.0928658 -0.0127934 0)
(-0.0917107 -0.0217916 0)
(-0.0904568 -0.031125 0)
(-0.0891405 -0.040892 0)
(-0.0878311 -0.0512136 0)
(-0.0866346 -0.0622513 0)
(-0.0856905 -0.0742293 0)
(-0.0851497 -0.0874495 0)
(-0.0851264 -0.102274 0)
(-0.0856246 -0.11904 0)
(-0.0864275 -0.137882 0)
(-0.0867914 -0.158503 0)
(-0.0848978 -0.179356 0)
(-0.0791222 -0.193792 0)
(-0.0683887 -0.196369 0)
(-0.0490467 -0.174539 0)
(-0.0183735 -0.0892627 0)
(-0.00873794 0.0446022 0)
(-0.0243995 0.0722047 0)
(-0.0398231 0.0950124 0)
(-0.0561725 0.117933 0)
(-0.0711286 0.136885 0)
(-0.080995 0.14599 0)
(-0.0874115 0.147274 0)
(-0.0914963 0.142644 0)
(-0.0931957 0.134304 0)
(-0.0937899 0.123962 0)
(-0.0933276 0.112465 0)
(-0.0923589 0.100649 0)
(-0.091151 0.0890187 0)
(-0.089891 0.0778269 0)
(-0.0887148 0.0671987 0)
(-0.0876801 0.0571379 0)
(-0.0868 0.0475822 0)
(-0.086052 0.0384349 0)
(-0.0853936 0.0295826 0)
(-0.0847765 0.0209151 0)
(-0.0841499 0.0123309 0)
(-0.0834692 0.00373615 0)
(-0.0827013 -0.00495942 0)
(-0.0818179 -0.0138322 0)
(-0.0808048 -0.0229535 0)
(-0.0796628 -0.0323952 0)
(-0.0784116 -0.0422299 0)
(-0.0770974 -0.0525454 0)
(-0.0758003 -0.0634648 0)
(-0.0746395 -0.0751781 0)
(-0.0737664 -0.0879793 0)
(-0.0733306 -0.102286 0)
(-0.0734121 -0.118591 0)
(-0.0739238 -0.137291 0)
(-0.074444 -0.158459 0)
(-0.0735735 -0.181406 0)
(-0.0688513 -0.201429 0)
(-0.0607509 -0.208727 0)
(-0.0440427 -0.196326 0)
(-0.0154591 -0.122188 0)
(-0.00804465 0.0594048 0)
(-0.0226815 0.0884756 0)
(-0.036854 0.110428 0)
(-0.0518195 0.13198 0)
(-0.0642853 0.147718 0)
(-0.071694 0.153276 0)
(-0.0770506 0.151949 0)
(-0.0798847 0.145135 0)
(-0.0809736 0.135284 0)
(-0.0811793 0.123873 0)
(-0.0805712 0.111723 0)
(-0.0796537 0.0995865 0)
(-0.0786052 0.0878565 0)
(-0.0775863 0.0767132 0)
(-0.0766894 0.0662128 0)
(-0.0759428 0.0563048 0)
(-0.0753378 0.0468884 0)
(-0.0748395 0.0378427 0)
(-0.0744027 0.0290452 0)
(-0.0739819 0.0203841 0)
(-0.0735329 0.0117616 0)
(-0.0730182 0.00309048 0)
(-0.0724096 -0.00571106 0)
(-0.0716823 -0.0147115 0)
(-0.0708202 -0.0239715 0)
(-0.0698168 -0.0335495 0)
(-0.0686778 -0.0434999 0)
(-0.0674275 -0.0538846 0)
(-0.0661175 -0.0647916 0)
(-0.064837 -0.0763697 0)
(-0.0637178 -0.0888796 0)
(-0.0629204 -0.102748 0)
(-0.0625804 -0.118574 0)
(-0.0627105 -0.136996 0)
(-0.0630667 -0.158386 0)
(-0.0626642 -0.182499 0)
(-0.0590803 -0.207333 0)
(-0.0521934 -0.219825 0)
(-0.0385441 -0.215891 0)
(-0.0136261 -0.154376 0)
(-0.00700109 0.0728611 0)
(-0.0202199 0.103372 0)
(-0.0328378 0.12428 0)
(-0.0461694 0.144111 0)
(-0.0559823 0.156281 0)
(-0.0617714 0.1592 0)
(-0.0662715 0.155558 0)
(-0.068224 0.146955 0)
(-0.0690019 0.135879 0)
(-0.0690339 0.123638 0)
(-0.0684695 0.111021 0)
(-0.0677197 0.0986888 0)
(-0.0669098 0.0869367 0)
(-0.0661706 0.0758818 0)
(-0.0655574 0.0655173 0)
(-0.0650771 0.0557477 0)
(-0.064708 0.0464432 0)
(-0.0644127 0.0374686 0)
(-0.0641502 0.0286986 0)
(-0.0638827 0.0200238 0)
(-0.0635753 0.011351 0)
(-0.0631989 0.00259875 0)
(-0.0627313 -0.0063081 0)
(-0.0621523 -0.0154334 0)
(-0.0614457 -0.0248325 0)
(-0.0606004 -0.0345555 0)
(-0.0596112 -0.0446457 0)
(-0.0584849 -0.0551466 0)
(-0.0572478 -0.066118 0)
(-0.0559579 -0.0776687 0)
(-0.0547177 -0.0900136 0)
(-0.0536764 -0.103554 0)
(-0.0529996 -0.118938 0)
(-0.0527786 -0.137001 0)
(-0.0528865 -0.158437 0)
(-0.0526953 -0.183465 0)
(-0.050313 -0.21075 0)
(-0.0440488 -0.229485 0)
(-0.0335031 -0.230848 0)
(-0.0111693 -0.17887 0)
(-0.00583932 0.0847056 0)
(-0.0172608 0.116545 0)
(-0.0281341 0.136272 0)
(-0.0395649 0.15413 0)
(-0.0470274 0.163165 0)
(-0.0519983 0.164074 0)
(-0.0554674 0.158382 0)
(-0.056876 0.148342 0)
(-0.0574965 0.136289 0)
(-0.0574914 0.123411 0)
(-0.0570674 0.110468 0)
(-0.0565327 0.0980195 0)
(-0.0559803 0.0862866 0)
(-0.055508 0.0753278 0)
(-0.0551439 0.0650828 0)
(-0.0548818 0.0554215 0)
(-0.054696 0.0461951 0)
(-0.0545527 0.0372615 0)
(-0.0544194 0.0284966 0)
(-0.0542675 0.0197951 0)
(-0.0540719 0.0110681 0)
(-0.0538117 0.00223855 0)
(-0.0534707 -0.00676423 0)
(-0.0530335 -0.0160021 0)
(-0.0524851 -0.025529 0)
(-0.0518117 -0.0353916 0)
(-0.0510011 -0.0456276 0)
(-0.0500468 -0.0562693 0)
(-0.0489552 -0.0673552 0)
(-0.0477576 -0.0789591 0)
(-0.0465262 -0.0912471 0)
(-0.0453864 -0.104571 0)
(-0.0445086 -0.119576 0)
(-0.0440396 -0.137231 0)
(-0.04395 -0.158548 0)
(-0.043852 -0.18412 0)
(-0.0422335 -0.213427 0)
(-0.0367451 -0.238194 0)
(-0.0292357 -0.244476 0)
(-0.00972407 -0.201679 0)
(-0.00444736 0.0943357 0)
(-0.0139884 0.127709 0)
(-0.0230996 0.146407 0)
(-0.0325063 0.162167 0)
(-0.0381013 0.168746 0)
(-0.0423392 0.167935 0)
(-0.0449184 0.160613 0)
(-0.0460037 0.149447 0)
(-0.0465435 0.136632 0)
(-0.0465786 0.123277 0)
(-0.0463288 0.110105 0)
(-0.0460121 0.0975889 0)
(-0.0456976 0.0858894 0)
(-0.0454523 0.0750135 0)
(-0.0452868 0.0648592 0)
(-0.0451891 0.0552719 0)
(-0.0451356 0.0460918 0)
(-0.0451002 0.0371752 0)
(-0.0450596 0.0284007 0)
(-0.0449945 0.0196672 0)
(-0.0448888 0.0108897 0)
(-0.0447291 0.00199354 0)
(-0.0445047 -0.00708926 0)
(-0.0442044 -0.0164206 0)
(-0.0438156 -0.0260555 0)
(-0.0433238 -0.0360414 0)
(-0.0427124 -0.0464148 0)
(-0.0419657 -0.0572023 0)
(-0.0410755 -0.0684278 0)
(-0.040052 -0.0801365 0)
(-0.0389412 -0.0924482 0)
(-0.0378436 -0.105655 0)
(-0.036922 -0.120364 0)
(-0.0363617 -0.137609 0)
(-0.0362239 -0.158686 0)
(-0.0362246 -0.184522 0)
(-0.0352407 -0.214923 0)
(-0.031224 -0.244571 0)
(-0.0246791 -0.255684 0)
(-0.00817812 -0.219696 0)
(-0.00318189 0.102023 0)
(-0.0106041 0.136894 0)
(-0.0179894 0.154712 0)
(-0.0253505 0.168412 0)
(-0.0294061 0.173134 0)
(-0.0329063 0.170945 0)
(-0.0347766 0.162378 0)
(-0.0356511 0.150361 0)
(-0.0361453 0.136968 0)
(-0.0362542 0.123264 0)
(-0.0361748 0.109933 0)
(-0.0360528 0.0973748 0)
(-0.0359372 0.0857049 0)
(-0.0358693 0.0748883 0)
(-0.0358501 0.0647927 0)
(-0.0358676 0.055248 0)
(-0.0359038 0.0460892 0)
(-0.0359416 0.0371733 0)
(-0.0359666 0.0283822 0)
(-0.035968 0.0196184 0)
(-0.0359373 0.0107995 0)
(-0.0358675 0.00185257 0)
(-0.0357528 -0.00728986 0)
(-0.0355861 -0.0166908 0)
(-0.0353576 -0.0264083 0)
(-0.0350538 -0.0364931 0)
(-0.0346563 -0.0469845 0)
(-0.0341439 -0.0579077 0)
(-0.0334976 -0.0692775 0)
(-0.0327115 -0.0811162 0)
(-0.0318092 -0.0935014 0)
(-0.0308656 -0.106663 0)
(-0.0300265 -0.121146 0)
(-0.0294963 -0.137998 0)
(-0.0294138 -0.158739 0)
(-0.029571 -0.184688 0)
(-0.0290849 -0.21611 0)
(-0.026246 -0.249637 0)
(-0.0216125 -0.265585 0)
(-0.0071066 -0.236419 0)
(-0.00165718 0.107151 0)
(-0.00717008 0.143919 0)
(-0.0128212 0.161099 0)
(-0.0182587 0.173049 0)
(-0.0210842 0.176492 0)
(-0.0237952 0.173221 0)
(-0.0250904 0.163764 0)
(-0.0257965 0.151135 0)
(-0.0262545 0.137323 0)
(-0.0264402 0.123371 0)
(-0.0265067 0.109928 0)
(-0.026544 0.0973391 0)
(-0.0265817 0.0856855 0)
(-0.0266423 0.0749015 0)
(-0.0267231 0.064835 0)
(-0.0268152 0.0553078 0)
(-0.0269081 0.0461528 0)
(-0.0269933 0.037229 0)
(-0.0270647 0.028421 0)
(-0.0271188 0.019634 0)
(-0.0271532 0.0107873 0)
(-0.0271666 0.00180834 0)
(-0.0271571 -0.00737047 0)
(-0.0271216 -0.0168142 0)
(-0.0270537 -0.0265851 0)
(-0.0269419 -0.0367388 0)
(-0.0267683 -0.04732 0)
(-0.0265094 -0.0583568 0)
(-0.0261399 -0.0698598 0)
(-0.0256419 -0.081834 0)
(-0.0250216 -0.0943204 0)
(-0.0243318 -0.107488 0)
(-0.0236977 -0.121804 0)
(-0.0233233 -0.138284 0)
(-0.0233961 -0.158596 0)
(-0.0237978 -0.184477 0)
(-0.0239049 -0.216751 0)
(-0.0221979 -0.252787 0)
(-0.0186755 -0.273528 0)
(-0.00603994 -0.250117 0)
(-0.000560133 0.110517 0)
(-0.00380799 0.148941 0)
(-0.00771641 0.165645 0)
(-0.0113513 0.176253 0)
(-0.013152 0.178902 0)
(-0.0150202 0.174826 0)
(-0.0158371 0.164806 0)
(-0.0163819 0.151783 0)
(-0.0167969 0.137694 0)
(-0.0170429 0.123577 0)
(-0.0172214 0.110056 0)
(-0.0173784 0.0974396 0)
(-0.0175256 0.0857851 0)
(-0.017672 0.0750082 0)
(-0.0178148 0.0649467 0)
(-0.01795 0.0554185 0)
(-0.0180748 0.046257 0)
(-0.0181888 0.0373229 0)
(-0.0182931 0.0285031 0)
(-0.0183905 0.0197042 0)
(-0.0184839 0.0108462 0)
(-0.0185762 0.00185639 0)
(-0.0186694 -0.00733387 0)
(-0.018764 -0.016792 0)
(-0.0188566 -0.0265845 0)
(-0.0189389 -0.0367733 0)
(-0.0189955 -0.0474099 0)
(-0.0190031 -0.0585283 0)
(-0.0189337 -0.0701391 0)
(-0.0187616 -0.0822356 0)
(-0.0184793 -0.0948279 0)
(-0.0181202 -0.108028 0)
(-0.0177886 -0.122224 0)
(-0.0176767 -0.138361 0)
(-0.0180001 -0.158189 0)
(-0.0187314 -0.183865 0)
(-0.0194428 -0.216766 0)
(-0.018754 -0.255091 0)
(-0.0166084 -0.280407 0)
(-0.00525401 -0.262888 0)
(0.00109304 0.11111 0)
(-0.0004656 0.151918 0)
(-0.00267134 0.168436 0)
(-0.00468425 0.178176 0)
(-0.00553997 0.180357 0)
(-0.00657104 0.175818 0)
(-0.00695761 0.165529 0)
(-0.0073289 0.152306 0)
(-0.00768318 0.138065 0)
(-0.00796258 0.123853 0)
(-0.00821674 0.110281 0)
(-0.00845557 0.0976351 0)
(-0.00867416 0.0859626 0)
(-0.00887178 0.0751717 0)
(-0.00904694 0.0650968 0)
(-0.00920161 0.0555555 0)
(-0.00934017 0.0463829 0)
(-0.00946942 0.0374415 0)
(-0.00959721 0.0286191 0)
(-0.00973146 0.0198227 0)
(-0.00987973 0.0109722 0)
(-0.0100486 0.00199414 0)
(-0.0102433 -0.00718166 0)
(-0.0104672 -0.0166248 0)
(-0.0107206 -0.0264062 0)
(-0.0109985 -0.0365939 0)
(-0.0112891 -0.0472472 0)
(-0.0115718 -0.0584078 0)
(-0.0118192 -0.0700902 0)
(-0.0120019 -0.0822815 0)
(-0.0121025 -0.0949671 0)
(-0.0121371 -0.108209 0)
(-0.0121885 -0.12231 0)
(-0.0124312 -0.138132 0)
(-0.0130956 -0.157447 0)
(-0.0142442 -0.182774 0)
(-0.0155689 -0.216036 0)
(-0.0157929 -0.2561 0)
(-0.0147444 -0.285779 0)
(-0.00449379 -0.273638 0)
(0.00214716 0.109796 0)
(0.00271941 0.152918 0)
(0.00222874 0.169596 0)
(0.00172187 0.178927 0)
(0.00181766 0.180926 0)
(0.00161072 0.176199 0)
(0.00162193 0.165898 0)
(0.00144392 0.152674 0)
(0.00117662 0.138406 0)
(0.000896678 0.124165 0)
(0.0006028 0.110566 0)
(0.000315039 0.0978906 0)
(5.67215e-05 0.0861873 0)
(-0.000163273 0.0753658 0)
(-0.00034784 0.0652631 0)
(-0.000504565 0.055701 0)
(-0.000643593 0.0465172 0)
(-0.000778342 0.0375749 0)
(-0.000922546 0.028762 0)
(-0.00108904 0.019985 0)
(-0.00128931 0.0111627 0)
(-0.00153331 0.00222035 0)
(-0.00182897 -0.00691413 0)
(-0.00218264 -0.0163125 0)
(-0.00259737 -0.0260497 0)
(-0.00307195 -0.0361994 0)
(-0.00359854 -0.0468282 0)
(-0.00416189 -0.0579862 0)
(-0.00473785 -0.0696952 0)
(-0.0052964 -0.081941 0)
(-0.00581563 -0.0946908 0)
(-0.00629458 -0.107964 0)
(-0.00679423 -0.121982 0)
(-0.00746901 -0.137511 0)
(-0.00855122 -0.156304 0)
(-0.0101866 -0.181183 0)
(-0.012162 -0.214665 0)
(-0.0132298 -0.256311 0)
(-0.0133944 -0.290309 0)
(-0.00390702 -0.283751 0)
(0.0032852 0.106508 0)
(0.00586376 0.152022 0)
(0.00698615 0.169287 0)
(0.00787755 0.178516 0)
(0.00895543 0.180501 0)
(0.00953633 0.176062 0)
(0.00996536 0.165952 0)
(0.0100221 0.152873 0)
(0.00987286 0.138687 0)
(0.00962537 0.124479 0)
(0.00932546 0.110875 0)
(0.00902213 0.098172 0)
(0.00875197 0.0864304 0)
(0.00852887 0.0755672 0)
(0.00835009 0.0654275 0)
(0.00820457 0.0558414 0)
(0.00807541 0.0466495 0)
(0.00794303 0.0377156 0)
(0.00778828 0.0289268 0)
(0.00759369 0.0201879 0)
(0.00734399 0.011416 0)
(0.00702622 0.00253445 0)
(0.00662951 -0.00653073 0)
(0.0061452 -0.0158536 0)
(0.00556773 -0.0255123 0)
(0.00489485 -0.0355862 0)
(0.00412952 -0.0461483 0)
(0.00328134 -0.0572575 0)
(0.0023698 -0.0689427 0)
(0.00142026 -0.0811928 0)
(0.0004536 -0.0939648 0)
(-0.000512433 -0.107239 0)
(-0.00151689 -0.121172 0)
(-0.0026928 -0.136424 0)
(-0.00426441 -0.154691 0)
(-0.00644051 -0.179023 0)
(-0.00909906 -0.212548 0)
(-0.0108873 -0.255453 0)
(-0.0122054 -0.293699 0)
(-0.00332764 -0.292471 0)
(0.00450609 0.100849 0)
(0.00899217 0.149224 0)
(0.0116321 0.167519 0)
(0.013814 0.176976 0)
(0.0158953 0.179176 0)
(0.0172261 0.175308 0)
(0.0181295 0.16568 0)
(0.0184618 0.152879 0)
(0.0184706 0.138878 0)
(0.0182973 0.124761 0)
(0.0180297 0.111182 0)
(0.0177416 0.0984574 0)
(0.0174827 0.0866703 0)
(0.0172743 0.0757561 0)
(0.0171156 0.0655754 0)
(0.0169921 0.0559658 0)
(0.0168814 0.0467716 0)
(0.0167585 0.0378574 0)
(0.0165988 0.0291086 0)
(0.0163806 0.020428 0)
(0.0160847 0.01173 0)
(0.0156951 0.00293565 0)
(0.015198 -0.00603161 0)
(0.0145828 -0.0152481 0)
(0.0138415 -0.0247943 0)
(0.012968 -0.034753 0)
(0.01196 -0.0452031 0)
(0.0108221 -0.0562116 0)
(0.00956672 -0.0678171 0)
(0.00821124 -0.0800147 0)
(0.00677902 -0.0927563 0)
(0.00529013 -0.105993 0)
(0.00372466 -0.119823 0)
(0.00198581 -0.1348 0)
(-0.000142052 -0.152543 0)
(-0.00291573 -0.176271 0)
(-0.00633513 -0.20976 0)
(-0.00873856 -0.253779 0)
(-0.0113109 -0.296449 0)
(-0.00283049 -0.300738 0)
(0.00567979 0.0931974 0)
(0.0120477 0.144611 0)
(0.01616 0.164374 0)
(0.0195569 0.174364 0)
(0.0226594 0.176956 0)
(0.0246498 0.173892 0)
(0.0261342 0.165057 0)
(0.0268063 0.152647 0)
(0.0270216 0.13893 0)
(0.0269727 0.124971 0)
(0.0267801 0.111449 0)
(0.0265402 0.0987162 0)
(0.0263189 0.0868863 0)
(0.0261452 0.07592 0)
(0.0260208 0.0656968 0)
(0.0259297 0.0560656 0)
(0.0258456 0.0468762 0)
(0.0257387 0.0379937 0)
(0.02558 0.0293019 0)
(0.0253432 0.0207006 0)
(0.0250053 0.0121013 0)
(0.0245474 0.00342177 0)
(0.023952 -0.00541715 0)
(0.0232067 -0.0144947 0)
(0.0223008 -0.0238933 0)
(0.0212239 -0.0336986 0)
(0.0199697 -0.0439931 0)
(0.0185371 -0.0548486 0)
(0.0169279 -0.0663113 0)
(0.0151525 -0.0783867 0)
(0.0132318 -0.0910308 0)
(0.0111859 -0.104184 0)
(0.00901463 -0.117882 0)
(0.00665131 -0.132577 0)
(0.00390656 -0.149786 0)
(0.000478523 -0.172846 0)
(-0.00377679 -0.20621 0)
(-0.00671662 -0.251314 0)
(-0.0107415 -0.297958 0)
(-0.00205213 -0.3081 0)
(0.00674638 0.0835827 0)
(0.0149755 0.138182 0)
(0.0205326 0.159871 0)
(0.0250788 0.170696 0)
(0.0291725 0.173997 0)
(0.031837 0.171679 0)
(0.0339364 0.16396 0)
(0.0350627 0.152121 0)
(0.0355556 0.138787 0)
(0.0356922 0.125054 0)
(0.0356276 0.111634 0)
(0.0354806 0.0989171 0)
(0.0353301 0.0870554 0)
(0.0352147 0.0760413 0)
(0.0351411 0.0657786 0)
(0.0350942 0.056131 0)
(0.0350457 0.0469552 0)
(0.0349626 0.0381179 0)
(0.0348115 0.029501 0)
(0.034562 0.021001 0)
(0.0341874 0.0125259 0)
(0.0336651 0.0039898 0)
(0.0329749 -0.00468921 0)
(0.0321008 -0.0135934 0)
(0.0310297 -0.0228065 0)
(0.029747 -0.0324156 0)
(0.0282417 -0.0425068 0)
(0.0265049 -0.0531564 0)
(0.0245304 -0.064417 0)
(0.0223215 -0.0763004 0)
(0.019889 -0.0887701 0)
(0.0172508 -0.101767 0)
(0.014425 -0.115297 0)
(0.0113835 -0.129699 0)
(0.00796087 -0.146365 0)
(0.00381859 -0.168713 0)
(-0.00136127 -0.201894 0)
(-0.00481656 -0.248138 0)
(-0.0103096 -0.298603 0)
(-0.00138051 -0.315175 0)
(0.00763553 0.0720739 0)
(0.017671 0.130027 0)
(0.0246553 0.154078 0)
(0.0303106 0.16603 0)
(0.0352022 0.170315 0)
(0.0388405 0.168728 0)
(0.0415047 0.162222 0)
(0.043202 0.151202 0)
(0.0440712 0.138375 0)
(0.0444737 0.124947 0)
(0.0446076 0.111683 0)
(0.0446108 0.0990174 0)
(0.0445755 0.0871455 0)
(0.0445514 0.0760977 0)
(0.0445525 0.0658054 0)
(0.0445669 0.0561508 0)
(0.0445669 0.0470001 0)
(0.0445176 0.0382227 0)
(0.0443827 0.0296994 0)
(0.0441281 0.0213234 0)
(0.0437231 0.0129988 0)
(0.0431418 0.00463586 0)
(0.0423607 -0.0038503 0)
(0.0413598 -0.0125446 0)
(0.0401222 -0.0215324 0)
(0.0386296 -0.030901 0)
(0.0368656 -0.0407377 0)
(0.0348146 -0.0511208 0)
(0.0324617 -0.0621092 0)
(0.029797 -0.0737255 0)
(0.0268216 -0.0859434 0)
(0.0235567 -0.0987093 0)
(0.0200279 -0.112008 0)
(0.0162523 -0.126099 0)
(0.0120877 -0.142222 0)
(0.00716599 -0.163825 0)
(0.000990769 -0.196777 0)
(-0.00287058 -0.244164 0)
(-0.00976397 -0.298518 0)
(-0.000498965 -0.321617 0)
(0.00819442 0.0588621 0)
(0.0199792 0.120104 0)
(0.0283231 0.146937 0)
(0.0350914 0.160345 0)
(0.0408272 0.16573 0)
(0.04538 0.165127 0)
(0.0487436 0.159754 0)
(0.0511238 0.149773 0)
(0.052507 0.137595 0)
(0.0532933 0.124565 0)
(0.0537233 0.111523 0)
(0.053957 0.0989576 0)
(0.0541013 0.0871118 0)
(0.0542178 0.076056 0)
(0.0543299 0.0657534 0)
(0.054432 0.0561078 0)
(0.0544997 0.0469977 0)
(0.0544988 0.0382976 0)
(0.0543917 0.0298881 0)
(0.0541416 0.02166 0)
(0.0537143 0.0135136 0)
(0.0530807 0.00535502 0)
(0.0522133 -0.00290363 0)
(0.0510881 -0.0113488 0)
(0.0496831 -0.0200675 0)
(0.0479759 -0.0291478 0)
(0.0459442 -0.038676 0)
(0.0435646 -0.048731 0)
(0.0408122 -0.0593738 0)
(0.0376659 -0.0706361 0)
(0.0341175 -0.0825096 0)
(0.030183 -0.094961 0)
(0.0258968 -0.107965 0)
(0.0213166 -0.121707 0)
(0.0163376 -0.137289 0)
(0.0105455 -0.158138 0)
(0.00331907 -0.190839 0)
(-0.000885317 -0.239412 0)
(-0.00967441 -0.297304 0)
(0.000338705 -0.327886 0)
(0.0081612 0.0442935 0)
(0.0215907 0.108612 0)
(0.0312988 0.13852 0)
(0.0392106 0.153662 0)
(0.0458573 0.160223 0)
(0.0512811 0.16075 0)
(0.05553 0.156466 0)
(0.0586929 0.147675 0)
(0.0607546 0.136302 0)
(0.0620791 0.123787 0)
(0.0629391 0.111054 0)
(0.063516 0.0986569 0)
(0.0639317 0.0868898 0)
(0.0642611 0.0758671 0)
(0.0645392 0.0655861 0)
(0.0647699 0.0559753 0)
(0.0649355 0.0469285 0)
(0.0650052 0.0383277 0)
(0.0649426 0.0300554 0)
(0.0647099 0.0220012 0)
(0.0642703 0.0140626 0)
(0.0635926 0.00614127 0)
(0.0626441 -0.0018527 0)
(0.061396 -0.010006 0)
(0.0598223 -0.0184082 0)
(0.0578945 -0.0271473 0)
(0.0555831 -0.036307 0)
(0.0528563 -0.0459645 0)
(0.0496792 -0.0561826 0)
(0.0460196 -0.0670022 0)
(0.0418584 -0.0784332 0)
(0.0372087 -0.0904689 0)
(0.0321014 -0.103102 0)
(0.0266497 -0.116452 0)
(0.0207633 -0.131475 0)
(0.0140127 -0.151555 0)
(0.00572319 -0.183961 0)
(0.00125574 -0.233859 0)
(-0.00960943 -0.295474 0)
(0.00144452 -0.333733 0)
(0.00688539 0.0292314 0)
(0.0220713 0.0953685 0)
(0.0332078 0.128578 0)
(0.0423751 0.145891 0)
(0.050043 0.153812 0)
(0.0563915 0.155446 0)
(0.0616043 0.152298 0)
(0.0657041 0.144744 0)
(0.0686405 0.134317 0)
(0.0707001 0.122449 0)
(0.0721666 0.110136 0)
(0.0732387 0.097998 0)
(0.074053 0.0863852 0)
(0.0746984 0.0754571 0)
(0.0752237 0.0652474 0)
(0.075645 0.0557118 0)
(0.0759547 0.0467621 0)
(0.0761291 0.0382909 0)
(0.076136 0.030185 0)
(0.0759388 0.022335 0)
(0.0755008 0.014637 0)
(0.0747878 0.00698794 0)
(0.0737636 -0.000702072 0)
(0.0723938 -0.0085161 0)
(0.0706473 -0.0165495 0)
(0.0684898 -0.0248884 0)
(0.0658827 -0.0336121 0)
(0.0627848 -0.0427956 0)
(0.0591511 -0.0525019 0)
(0.0549391 -0.0627816 0)
(0.0501197 -0.0736649 0)
(0.0447047 -0.0851786 0)
(0.0387157 -0.097341 0)
(0.0323142 -0.110252 0)
(0.0254133 -0.124697 0)
(0.017636 -0.143993 0)
(0.00818603 -0.176033 0)
(0.00354848 -0.227251 0)
(-0.00988403 -0.292849 0)
(0.00267158 -0.339324 0)
(0.00368426 0.0156112 0)
(0.0207986 0.0810176 0)
(0.0337099 0.11715 0)
(0.0442835 0.136896 0)
(0.053092 0.146412 0)
(0.060442 0.149147 0)
(0.0666987 0.147089 0)
(0.0718974 0.140777 0)
(0.0759258 0.131424 0)
(0.078959 0.120349 0)
(0.0812521 0.108588 0)
(0.0830142 0.0968269 0)
(0.0843951 0.0854699 0)
(0.0854968 0.0747229 0)
(0.086383 0.0646567 0)
(0.0870846 0.0552558 0)
(0.0876072 0.0464528 0)
(0.0879376 0.0381537 0)
(0.0880517 0.0302528 0)
(0.0879163 0.0226449 0)
(0.0874988 0.0152252 0)
(0.0867598 0.00788906 0)
(0.0856659 0.000551207 0)
(0.0841763 -0.00687333 0)
(0.0822505 -0.0144818 0)
(0.0798495 -0.0223548 0)
(0.0769256 -0.0305674 0)
(0.0734276 -0.0391923 0)
(0.0693005 -0.0482921 0)