/*--------------------------------*- C++ -*----------------------------------*\
  =========                 |
  \\      /  F ield         | OpenFOAM: The Open Source CFD Toolbox
   \\    /   O peration     | Website:  https://openfoam.org
    \\  /    A nd           | Version:  12
     \\/     M anipulation  |
\*---------------------------------------------------------------------------*/
FoamFile
{
    format      ascii;
    class       volScalarField;
    location    "0.6";
    object      epsilon;
}
// * * * * * * * * * * * * * * * * * * * * * * * * * * * * * * * * * * * * * //

dimensions      [0 2 -3 0 0 0 0];

internalField   nonuniform List<scalar> 
1600
(
0.000180584
0.000603593
0.00103768
0.00137332
0.00162127
0.00180167
0.00193103
0.00202234
0.00208597
0.00213016
0.00216127
0.00218399
0.00220169
0.00221663
0.00223029
0.00224358
0.00225709
0.00227111
0.00228583
0.00230129
0.00231742
0.00233405
0.00235092
0.00236803
0.00238686
0.00240514
0.00242105
0.00243178
0.00243549
0.00242836
0.00240466
0.0023585
0.00228251
0.00216797
0.00200468
0.00178061
0.00148164
0.00109241
0.000612576
0.000180608
0.000612183
0.000646103
0.000851918
0.00102111
0.00114647
0.001236
0.00129839
0.00134097
0.00136955
0.00138862
0.00140147
0.00141045
0.00141715
0.00142259
0.00142741
0.00143197
0.0014365
0.00144108
0.00144578
0.00145058
0.00145546
0.00146037
0.00146532
0.00147037
0.00147586
0.00148102
0.00148492
0.00148648
0.0014853
0.00147928
0.00146631
0.00144374
0.00140825
0.00135574
0.00128121
0.00117833
0.00103933
0.000857613
0.000645325
0.000601975
0.00108357
0.00085895
0.000971232
0.00108622
0.00117693
0.00124355
0.00129016
0.00132193
0.00134319
0.00135722
0.00136649
0.00137273
0.00137714
0.0013805
0.00138331
0.00138588
0.00138837
0.0013909
0.0013935
0.00139621
0.00139904
0.00140198
0.00140502
0.00140816
0.00141137
0.00141424
0.00141604
0.00141643
0.00141464
0.00140939
0.00139916
0.00138202
0.00135557
0.00131691
0.00126261
0.00118888
0.00109216
0.000971196
0.000853049
0.00102797
0.00146648
0.00103938
0.00109188
0.00117457
0.00124515
0.00129872
0.00133752
0.00136464
0.00138304
0.00139528
0.00140335
0.0014087
0.00141235
0.00141499
0.00141707
0.00141889
0.00142062
0.00142237
0.0014242
0.00142615
0.00142825
0.00143049
0.00143285
0.00143528
0.00143764
0.00143966
0.00144071
0.00144069
0.00143873
0.00143387
0.00142488
0.00141019
0.00138792
0.00135583
0.00131144
0.00125225
0.0011767
0.00108787
0.00102182
0.00135183
0.00176256
0.00117784
0.00118875
0.00125025
0.00130808
0.00135392
0.00138793
0.00141214
0.00142884
0.0014401
0.00144755
0.00145247
0.00145574
0.001458
0.00145968
0.00146107
0.00146235
0.00146364
0.00146501
0.00146651
0.00146816
0.00146998
0.00147192
0.00147393
0.00147587
0.00147746
0.00147821
0.00147797
0.00147597
0.00147134
0.00146302
0.00144968
0.00142974
0.00140137
0.00136261
0.00131176
0.00124849
0.00117901
0.00114478
0.00158481
0.00198804
0.00128128
0.00126295
0.00130996
0.00135918
0.00139971
0.00143048
0.00145276
0.00146838
0.00147905
0.00148617
0.00149087
0.00149396
0.00149604
0.00149751
0.00149867
0.0014997
0.00150072
0.00150183
0.00150306
0.00150447
0.00150603
0.00150773
0.00150951
0.00151121
0.00151255
0.00151312
0.00151274
0.00151067
0.00150615
0.00149819
0.00148561
0.00146698
0.00144074
0.00140522
0.00135908
0.00130253
0.00124522
0.00123035
0.00174688
0.00215759
0.00135757
0.00131841
0.00135545
0.00139884
0.00143578
0.00146434
0.00148533
0.00150023
0.00151052
0.00151746
0.00152206
0.00152507
0.00152706
0.00152843
0.00152946
0.00153035
0.00153123
0.00153218
0.00153328
0.00153454
0.00153597
0.00153754
0.00153919
0.00154077
0.00154199
0.00154247
0.00154199
0.00153989
0.00153542
0.00152764
0.00151545
0.00149753
0.00147239
0.00143854
0.0013948
0.00134161
0.00129087
0.00128754
0.00185439
0.00228344
0.00141324
0.00135915
0.0013894
0.00142891
0.00146347
0.00149056
0.0015107
0.00152514
0.0015352
0.00154204
0.0015466
0.0015496
0.00155156
0.0015529
0.00155388
0.00155471
0.00155552
0.00155642
0.00155746
0.00155867
0.00156007
0.00156162
0.00156325
0.00156482
0.00156603
0.00156651
0.00156605
0.00156399
0.00155958
0.00155194
0.00153995
0.00152233
0.00149763
0.00146438
0.00142146
0.00136948
0.00132122
0.001324
0.00192032
0.00237568
0.00145342
0.0013887
0.00141438
0.00145138
0.00148442
0.0015106
0.0015302
0.00154436
0.00155429
0.0015611
0.00156567
0.00156868
0.00157067
0.00157202
0.00157301
0.00157385
0.00157468
0.00157559
0.00157666
0.00157792
0.00157939
0.00158102
0.00158274
0.00158444
0.00158582
0.00158645
0.00158615
0.00158427
0.00158006
0.0015726
0.00156077
0.00154325
0.00151857
0.00148519
0.00144197
0.00138949
0.00134119
0.00134517
0.00195059
0.00244263
0.00148221
0.00140998
0.00143262
0.00146804
0.00150017
0.0015258
0.00154511
0.00155912
0.00156901
0.00157583
0.00158043
0.0015835
0.00158554
0.00158694
0.001588
0.0015889
0.00158981
0.00159082
0.00159201
0.00159342
0.00159506
0.0015969
0.00159888
0.00160087
0.00160262
0.00160364
0.00160373
0.00160227
0.00159849
0.00159142
0.00157988
0.00156247
0.00153759
0.0015036
0.00145921
0.00140489
0.00135465
0.00135589
0.00195682
0.00249108
0.00150284
0.0014253
0.00144595
0.00148041
0.00151202
0.00153737
0.00155653
0.00157049
0.00158039
0.00158725
0.00159191
0.00159505
0.00159718
0.00159868
0.00159983
0.00160086
0.00160191
0.0016031
0.00160451
0.00160617
0.00160812
0.00161033
0.00161275
0.00161524
0.0016176
0.0016194
0.00162019
0.00161955
0.00161661
0.00161034
0.00159945
0.00158238
0.00155734
0.00152245
0.00147619
0.00141883
0.00136487
0.00136015
0.00194635
0.00252649
0.00151783
0.00143647
0.00145579
0.00148968
0.00152102
0.00154625
0.00156538
0.00157935
0.00158929
0.00159621
0.00160095
0.00160418
0.00160641
0.00160803
0.00160934
0.00161054
0.0016118
0.00161325
0.00161496
0.00161701
0.00161942
0.00162219
0.00162527
0.00162857
0.00163187
0.00163487
0.00163697
0.0016377
0.00163628
0.00163152
0.00162198
0.00160583
0.00158097
0.00154512
0.00149638
0.00143478
0.00137435
0.00136066
0.00191901
0.00255308
0.00152909
0.00144484
0.00146323
0.00149678
0.001528
0.00155322
0.00157236
0.00158638
0.00159638
0.00160337
0.0016082
0.00161154
0.00161389
0.00161566
0.00161714
0.00161856
0.0016201
0.00162188
0.00162402
0.00162658
0.00162963
0.00163318
0.00163723
0.0016417
0.00164643
0.00165116
0.00165544
0.00165849
0.00165961
0.00165758
0.00165064
0.00163661
0.00161279
0.00157626
0.00152441
0.00145683
0.00138575
0.00135875
0.00187734
0.00257405
0.00153801
0.00145142
0.0014691
0.00150243
0.00153361
0.00155885
0.00157804
0.00159212
0.00160218
0.00160925
0.00161417
0.00161761
0.0016201
0.00162203
0.00162372
0.00162541
0.00162728
0.00162949
0.00163215
0.00163538
0.00163927
0.00164389
0.00164926
0.0016554
0.00166221
0.00166951
0.00167694
0.00168391
0.00168934
0.0016919
0.00168981
0.0016801
0.00165919
0.0016229
0.00156729
0.0014909
0.00140272
0.00135604
0.00182107
0.00259173
0.0015456
0.00145696
0.001474
0.00150715
0.00153832
0.00156359
0.00158284
0.00159697
0.0016071
0.00161424
0.00161924
0.00162278
0.0016254
0.00162752
0.00162944
0.00163143
0.00163369
0.0016364
0.00163971
0.00164377
0.00164873
0.00165473
0.00166189
0.00167032
0.00168009
0.00169115
0.00170333
0.00171616
0.00172876
0.00173962
0.00174572
0.00174443
0.00173011
0.00169634
0.00163632
0.0015458
0.00143123
0.00135388
0.00174751
0.00260778
0.00155257
0.00146195
0.00147838
0.00151135
0.00154249
0.00156779
0.00158708
0.00160125
0.00161142
0.00161861
0.00162367
0.00162731
0.00163007
0.00163236
0.00163453
0.00163685
0.00163955
0.00164284
0.00164692
0.00165199
0.00165828
0.00166603
0.00167553
0.00168707
0.00170094
0.00171741
0.00173662
0.00175845
0.0017823
0.00180667
0.00182878
0.00184174
0.00184102
0.00181472
0.00175001
0.00163656
0.00147834
0.00135194
0.00164979
0.00262336
0.00155939
0.00146676
0.00148253
0.00151529
0.00154638
0.00157168
0.00159099
0.00160518
0.00161536
0.00162257
0.00162768
0.00163139
0.00163426
0.00163673
0.00163915
0.00164182
0.001645
0.00164893
0.00165389
0.00166015
0.00166805
0.001678
0.0016905
0.00170614
0.00172562
0.0017497
0.00177913
0.00181451
0.00185589
0.00190222
0.00195031
0.00199308
0.00201473
0.00200601
0.00193759
0.00178583
0.00155065
0.0013422
0.00151245
0.00263927
0.00156642
0.00147166
0.0014867
0.0015192
0.0015502
0.00157546
0.00159474
0.00160891
0.00161907
0.00162627
0.00163139
0.00163514
0.0016381
0.00164072
0.00164338
0.00164641
0.00165008
0.00165472
0.00166065
0.00166828
0.00167809
0.00169072
0.001707
0.00172796
0.00175491
0.00178946
0.00183341
0.00188862
0.00195656
0.00203741
0.00212842
0.00222127
0.00228838
0.00230904
0.00224283
0.00202813
0.00165794
0.00129555
0.00130501
0.00265611
0.00157388
0.00147681
0.00149103
0.00152322
0.00155408
0.00157926
0.00159847
0.00161257
0.00162266
0.0016298
0.00163488
0.00163863
0.00164164
0.00164438
0.00164725
0.00165061
0.00165479
0.00166016
0.00166715
0.0016763
0.00168831
0.00170414
0.00172504
0.00175271
0.00178938
0.00183791
0.00190178
0.001985
0.00209161
0.00222439
0.00238225
0.00255522
0.00270868
0.00277642
0.00273329
0.00243781
0.00187336
0.001233
0.0010071
0.00267433
0.00158198
0.00148237
0.00149567
0.00152748
0.00155814
0.00158318
0.00160226
0.00161622
0.00162618
0.0016332
0.00163819
0.00164188
0.00164488
0.00164769
0.00165073
0.00165438
0.00165904
0.00166514
0.00167324
0.00168405
0.00169853
0.00171804
0.00174444
0.0017803
0.00182912
0.00189556
0.00198557
0.00210643
0.00226635
0.00247268
0.00272785
0.00302103
0.00331727
0.00349467
0.00353728
0.00324457
0.00250306
0.00139502
0.000898808
0.00269435
0.00159087
0.00148846
0.00150072
0.00153207
0.00156246
0.0015873
0.00160617
0.00161993
0.00162968
0.00163651
0.00164132
0.00164488
0.00164781
0.00165062
0.00165376
0.00165765
0.00166273
0.00166954
0.00167874
0.00169128
0.00170842
0.00173203
0.0017647
0.00181013
0.00187344
0.00196162
0.0020839
0.00225203
0.00248009
0.00278201
0.00316576
0.00362316
0.00412447
0.00465038
0.00495658
0.00497362
0.00425982
0.00249389
0.0012867
0.0027166
0.00160071
0.0014952
0.00150627
0.00153708
0.00156713
0.00159167
0.00161025
0.00162371
0.00163317
0.00163971
0.00164426
0.00164761
0.00165039
0.00165312
0.00165628
0.00166032
0.00166574
0.00167318
0.00168344
0.00169769
0.00171759
0.00174554
0.00178502
0.001841
0.00192051
0.00203322
0.00219219
0.00241433
0.00272031
0.00313082
0.00366051
0.00431742
0.00514724
0.0062968
0.00748355
0.00795152
0.00771546
0.00562063
0.00339673
0.00274156
0.00161169
0.00150271
0.00151244
0.00154259
0.00157219
0.00159633
0.00161452
0.00162757
0.00163663
0.00164278
0.00164699
0.00165004
0.00165258
0.00165514
0.00165822
0.00166231
0.00166798
0.00167593
0.00168714
0.00170301
0.00172559
0.00175788
0.00180427
0.00187106
0.00196718
0.00210502
0.0023012
0.00257715
0.00295837
0.00346921
0.00413293
0.00501074
0.00636788
0.00848582
0.0104827
0.0114
0.011682
0.0105955
0.00824116
0.00276983
0.00162402
0.00151113
0.00151932
0.00154868
0.00157771
0.00160133
0.00161899
0.00163151
0.00164005
0.00164572
0.00164949
0.00165215
0.00165436
0.00165667
0.00165959
0.00166364
0.00166943
0.00167775
0.00168974
0.00170703
0.00173204
0.00176834
0.00182115
0.00189796
0.00200931
0.00216962
0.00239785
0.00271763
0.00315493
0.00373488
0.00450142
0.00564612
0.0076193
0.0104246
0.0125352
0.0138921
0.0145084
0.0146157
0.0137845
0.00280212
0.00163795
0.00152063
0.00152704
0.00155544
0.00158374
0.00160667
0.00162366
0.00163552
0.00164343
0.00164851
0.00165176
0.00165397
0.0016558
0.0016578
0.0016605
0.00166444
0.00167025
0.00167882
0.00169139
0.00170981
0.00173682
0.00177646
0.00183457
0.00191946
0.0020426
0.00221922
0.00246851
0.00281249
0.00327197
0.00386794
0.00467618
0.00600992
0.00834587
0.0112618
0.0136213
0.0156615
0.0166943
0.0169388
0.0175318
0.00283932
0.00165377
0.00153139
0.00153572
0.00156295
0.00159031
0.00161238
0.00162853
0.0016396
0.00164678
0.00165122
0.00165391
0.00165565
0.00165711
0.00165883
0.00166132
0.00166514
0.00167095
0.00167967
0.00169264
0.00171188
0.00174033
0.00178235
0.00184409
0.00193415
0.00206397
0.00224798
0.00250263
0.00284277
0.00327724
0.00382349
0.004585
0.00594599
0.00841851
0.0114236
0.0143944
0.0175105
0.0192139
0.0195318
0.0205437
0.00288249
0.00167183
0.00154361
0.00154549
0.00157127
0.00159747
0.00161848
0.00163364
0.00164382
0.00165023
0.00165404
0.00165624
0.00165762
0.00165883
0.00166041
0.00166286
0.00166669
0.00167258
0.00168149
0.00169479
0.00171457
0.00174389
0.00178719
0.00185062
0.00194241
0.002073
0.00225425
0.00249864
0.00281757
0.00321037
0.00367855
0.0043333
0.00559884
0.0079547
0.0110827
0.0146604
0.019116
0.0219239
0.0223916
0.0234811
0.00293291
0.00169254
0.00155747
0.00155649
0.00158048
0.00160526
0.00162503
0.00163912
0.00164842
0.00165417
0.00165752
0.00165947
0.00166079
0.0016621
0.00166387
0.00166656
0.00167071
0.00167698
0.00168632
0.00170012
0.00172046
0.00175032
0.00179394
0.00185716
0.00194746
0.00207374
0.00224579
0.00247211
0.00275222
0.00307228
0.00342622
0.00392385
0.00497634
0.00711801
0.010317
0.0146273
0.0202697
0.0246179
0.0253967
0.025909
0.002992
0.00171632
0.00157314
0.00156884
0.00159068
0.00161382
0.00163227
0.00164539
0.00165405
0.00165951
0.0016629
0.00166517
0.00166706
0.00166908
0.00167169
0.00167533
0.00168049
0.0016878
0.00169819
0.001713
0.00173421
0.00176466
0.00180826
0.00187018
0.00195674
0.00207492
0.00223025
0.00242672
0.00265902
0.00290819
0.00316022
0.00350051
0.00428878
0.00611278
0.00930281
0.0142036
0.0210195
0.0272808
0.02868
0.0282092
0.00306133
0.00174353
0.00159084
0.00158269
0.00160207
0.00162352
0.0016409
0.00165353
0.00166227
0.00166833
0.00167279
0.0016765
0.00168009
0.00168404
0.00168877
0.00169466
0.00170216
0.00171185
0.00172456
0.00174156
0.00176465
0.00179638
0.00184018
0.00190036
0.00198192
0.0020899
0.00222825
0.00239246
0.00257593
0.00276081
0.00293184
0.00314888
0.00370381
0.00518431
0.00825643
0.0135693
0.0213298
0.029555
0.0321823
0.0302879
0.00314239
0.00177445
0.00161078
0.00159831
0.0016152
0.00163543
0.00165265
0.00166609
0.00167653
0.00168502
0.00169251
0.00169969
0.00170713
0.00171527
0.00172447
0.00173504
0.00174736
0.00176194
0.00177951
0.00180116
0.00182845
0.00186353
0.00190919
0.00196875
0.00204571
0.00214308
0.00226233
0.00240188
0.00254606
0.00267489
0.00278085
0.00291751
0.00331763
0.00450332
0.007321
0.0128037
0.0213727
0.0313432
0.0355972
0.0321543
0.00323738
0.0018093
0.00163324
0.0016164
0.0016316
0.00165225
0.00167169
0.00168885
0.00170427
0.00171865
0.00173275
0.00174721
0.00176252
0.00177903
0.00179703
0.0018168
0.00183864
0.00186297
0.00189037
0.00192171
0.00195821
0.00200151
0.00205364
0.00211679
0.0021929
0.00228288
0.00238567
0.00249761
0.00260954
0.00270628
0.00277968
0.00286794
0.00316783
0.00414218
0.00665879
0.0119695
0.021018
0.0326361
0.0389547
0.0339138
0.00334824
0.00184806
0.00165897
0.00163898
0.00165543
0.00168082
0.00170788
0.00173468
0.00176123
0.00178808
0.00181577
0.00184481
0.00187561
0.00190848
0.00194371
0.00198153
0.00202222
0.00206608
0.00211352
0.0021651
0.00222161
0.00228403
0.00235349
0.0024309
0.00251656
0.00260928
0.00270558
0.00279912
0.00288111
0.00294138
0.00297851
0.00304435
0.00329789
0.00412834
0.00638131
0.0113877
0.0205107
0.0336328
0.0419898
0.0355002
0.00347821
0.00189103
0.00169054
0.00167212
0.00169817
0.00173838
0.00178382
0.00183205
0.00188246
0.00193517
0.00199052
0.00204893
0.00211085
0.0021767
0.00224683
0.00232156
0.00240116
0.00248588
0.00257585
0.00267117
0.00277198
0.0028784
0.00299028
0.00310701
0.00322692
0.00334667
0.00346035
0.00355932
0.00363365
0.00367647
0.00369438
0.00374564
0.00397138
0.00471391
0.00669186
0.0112366
0.0202851
0.0345354
0.0445346
0.0370168
0.00362314
0.00193795
0.00173651
0.00173498
0.00178985
0.00186672
0.00195504
0.00205114
0.00215357
0.00226195
0.00237649
0.00249782
0.00262676
0.00276413
0.00291058
0.00306658
0.00323248
0.00340837
0.00359389
0.00378818
0.00399017
0.00419852
0.00441105
0.00462472
0.00483522
0.00503644
0.00521992
0.00537497
0.0054902
0.00556044
0.00559847
0.00566936
0.00590485
0.00661216
0.0084071
0.0124849
0.0209127
0.0358716
0.0466224
0.0385307
0.00381762
0.00200201
0.00182633
0.00188237
0.00201532
0.00218484
0.00237785
0.00258884
0.00281524
0.00305608
0.00331162
0.00358312
0.00387243
0.00418137
0.00451062
0.00486033
0.0052302
0.00561937
0.00602606
0.00644689
0.00687804
0.00731507
0.00775233
0.00818328
0.00859966
0.00899188
0.00934838
0.00965655
0.00990407
0.0100844
0.0102128
0.0103515
0.010639
0.0113417
0.0129693
0.0165613
0.0239794
0.0385787
0.0485291
0.0394405
0.00400205
0.00212139
0.00205812
0.0023016
0.0026633
0.00309454
0.00357838
0.00410643
0.00467299
0.00527445
0.0059096
0.00657933
0.00728593
0.00803235
0.00881601
0.00963225
0.0104755
0.0113406
0.0122208
0.0131091
0.0139976
0.0148776
0.0157394
0.016574
0.0173705
0.0181156
0.018794
0.0193909
0.0198934
0.0202929
0.0205957
0.0208555
0.0211656
0.0218106
0.0231527
0.026091
0.0317702
0.0440477
0.0504258
0.0398282
0.00440312
0.00243464
0.00286004
0.00378857
0.00494176
0.00623794
0.00765403
0.00916878
0.010758
0.0124009
0.0140831
0.0157965
0.0175362
0.0192982
0.0210663
0.0228249
0.0245622
0.0262685
0.0279303
0.0295448
0.0311053
0.0326076
0.034041
0.0353995
0.0366876
0.0378795
0.0389591
0.0399016
0.0407053
0.0413381
0.0418161
0.0421483
0.0423461
0.0427882
0.0437315
0.0459406
0.0483047
0.0544604
0.05354
0.0398296
0.00458054
0.00347729
0.0062134
0.0100623
0.0141663
0.0183331
0.0225899
0.0268858
0.031136
0.0352713
0.0392471
0.0430441
0.0466485
0.0500375
0.0532008
0.0561474
0.0588893
0.0614435
0.0638133
0.0660149
0.0680474
0.0699228
0.0716422
0.0732064
0.0746135
0.0758355
0.0769232
0.0777754
0.0785073
0.0789259
0.0791971
0.07914
0.0789626
0.0784793
0.0773014
0.0748477
0.069265
0.0642533
0.0564732
0.0375213
0.00328651
0.00521982
0.00816422
0.0108916
0.0133824
0.0156599
0.0177691
0.0197606
0.021662
0.0234896
0.0252511
0.0269467
0.028594
0.0301789
0.0316989
0.0331523
0.0345507
0.0358895
0.0371883
0.0384273
0.0396426
0.0407922
0.0419382
0.0430037
0.044087
0.0450706
0.0460907
0.0469779
0.0479009
0.0486395
0.0493615
0.0498323
0.0501112
0.050041
0.049868
0.0494919
0.0486745
0.0471849
0.0441326
0.0355881
)
;

boundaryField
{
    movingWall
    {
        type            epsilonWallFunction;
        value           nonuniform List<scalar> 
40
(
0.00328651
0.00521982
0.00816422
0.0108916
0.0133824
0.0156599
0.0177691
0.0197606
0.021662
0.0234896
0.0252511
0.0269467
0.028594
0.0301789
0.0316989
0.0331523
0.0345507
0.0358895
0.0371883
0.0384273
0.0396426
0.0407922
0.0419382
0.0430037
0.044087
0.0450706
0.0460907
0.0469779
0.0479009
0.0486395
0.0493615
0.0498323
0.0501112
0.050041
0.049868
0.0494919
0.0486745
0.0471849
0.0441326
0.0355881
)
;
    }
    fixedWalls
    {
        type            epsilonWallFunction;
        value           nonuniform List<scalar> 
120
(
0.000180584
0.000612183
0.00108357
0.00146648
0.00176256
0.00198804
0.00215759
0.00228344
0.00237568
0.00244263
0.00249108
0.00252649
0.00255308
0.00257405
0.00259173
0.00260778
0.00262336
0.00263927
0.00265611
0.00267433
0.00269435
0.0027166
0.00274156
0.00276983
0.00280212
0.00283932
0.00288249
0.00293291
0.002992
0.00306133
0.00314239
0.00323738
0.00334824
0.00347821
0.00362314
0.00381762
0.00400205
0.00440312
0.00458054
0.00328651
0.000180608
0.000601975
0.00102797
0.00135183
0.00158481
0.00174688
0.00185439
0.00192032
0.00195059
0.00195682
0.00194635
0.00191901
0.00187734
0.00182107
0.00174751
0.00164979
0.00151245
0.00130501
0.0010071
0.000898808
0.0012867
0.00339673
0.00824116
0.0137845
0.0175318
0.0205437
0.0234811
0.025909
0.0282092
0.0302879
0.0321543
0.0339138
0.0355002
0.0370168
0.0385307
0.0394405
0.0398282
0.0398296
0.0375213
0.0355881
0.000180584
0.000603593
0.00103768
0.00137332
0.00162127
0.00180167
0.00193103
0.00202234
0.00208597
0.00213016
0.00216127
0.00218399
0.00220169
0.00221663
0.00223029
0.00224358
0.00225709
0.00227111
0.00228583
0.00230129
0.00231742
0.00233405
0.00235092
0.00236803
0.00238686
0.00240514
0.00242105
0.00243178
0.00243549
0.00242836
0.00240466
0.0023585
0.00228251
0.00216797
0.00200468
0.00178061
0.00148164
0.00109241
0.000612576
0.000180608
)
;
    }
    frontAndBack
    {
        type            empty;
    }
}


// ************************************************************************* //
