/*--------------------------------*- C++ -*----------------------------------*\
  =========                 |
  \\      /  F ield         | OpenFOAM: The Open Source CFD Toolbox
   \\    /   O peration     | Website:  https://openfoam.org
    \\  /    A nd           | Version:  12
     \\/     M anipulation  |
\*---------------------------------------------------------------------------*/
FoamFile
{
    format      ascii;
    class       volScalarField;
    location    "0.6";
    object      k;
}
// * * * * * * * * * * * * * * * * * * * * * * * * * * * * * * * * * * * * * //

dimensions      [0 2 -2 0 0 0 0];

internalField   nonuniform List<scalar> 
1600
(
1.39339e-05
4.6726e-05
8.0407e-05
0.00010647
0.000125738
0.000139772
0.000149845
0.000156963
0.000161929
0.000165382
0.000167815
0.000169594
0.00017098
0.00017215
0.000173219
0.00017426
0.000175317
0.000176416
0.000177569
0.00017878
0.000180045
0.000181349
0.000182673
0.000184013
0.000185486
0.00018692
0.000188166
0.000189005
0.000189293
0.000188731
0.000186873
0.000183262
0.000177323
0.000168384
0.000155653
0.000138202
0.00011494
8.46854e-05
4.74267e-05
1.3936e-05
4.73954e-05
0.000235325
0.000361369
0.000445661
0.000504723
0.000546753
0.000576683
0.000597857
0.00061273
0.000623161
0.000630561
0.000635976
0.000640165
0.000643653
0.000646792
0.000649812
0.000652854
0.000656006
0.000659316
0.000662802
0.000666458
0.000670249
0.000674092
0.00067785
0.000681255
0.000684231
0.000686494
0.000687515
0.000686997
0.000683888
0.000677225
0.000665768
0.000647984
0.000621973
0.000585317
0.000534774
0.000465662
0.000370361
0.000233418
4.6598e-05
8.39863e-05
0.000370287
0.000541094
0.000652874
0.000731386
0.000787576
0.00082781
0.000856411
0.000876557
0.000890657
0.000900549
0.000907616
0.000912871
0.000917034
0.000920597
0.000923886
0.000927107
0.000930386
0.000933792
0.000937354
0.000941069
0.000944896
0.000948751
0.000952499
0.000955931
0.000958768
0.000960425
0.000960601
0.000958373
0.000952697
0.000942328
0.000925728
0.000901017
0.00086587
0.000817319
0.000751354
0.000662009
0.000538874
0.000356751
7.96421e-05
0.000113741
0.000464374
0.000662853
0.000791479
0.000882192
0.000947637
0.000994923
0.00102885
0.00105295
0.0010699
0.0010818
0.00109021
0.00109634
0.00110102
0.00110487
0.00110829
0.00111154
0.00111479
0.00111813
0.00112161
0.00112521
0.0011289
0.00113257
0.00113606
0.00113912
0.00114131
0.00114214
0.00114104
0.00113698
0.00112882
0.00111519
0.00109439
0.00106437
0.00102262
0.00096593
0.000889926
0.000787956
0.000647777
0.000437936
0.000104778
0.000136771
0.000532916
0.000751524
0.000892577
0.000992398
0.00106491
0.00111776
0.00115602
0.00118343
0.00120285
0.00121651
0.00122614
0.00123304
0.00123819
0.00124228
0.00124578
0.00124901
0.00125217
0.00125537
0.00125867
0.00126207
0.00126551
0.00126888
0.00127196
0.00127447
0.00127582
0.00127569
0.00127316
0.00126723
0.00125667
0.00124002
0.00121549
0.00118094
0.00113377
0.00107063
0.000986925
0.000875524
0.000722866
0.000493421
0.000122869
0.000154329
0.000583652
0.000817608
0.000968461
0.0010756
0.00115388
0.00121135
0.00125327
0.00128353
0.00130511
0.00132035
0.00133107
0.00133868
0.00134425
0.00134853
0.00135208
0.00135525
0.00135827
0.0013613
0.00136437
0.00136751
0.00137063
0.0013736
0.00137618
0.00137796
0.00137852
0.00137727
0.00137328
0.00136549
0.00135263
0.00133315
0.00130522
0.00126667
0.00121481
0.00114624
0.00105621
0.000937269
0.000774966
0.000531217
0.000135459
0.000167548
0.000621346
0.000867172
0.00102591
0.00113906
0.00122216
0.00128352
0.00132858
0.00136131
0.00138478
0.0014014
0.00141309
0.00142134
0.00142728
0.00143173
0.0014353
0.00143839
0.00144126
0.00144407
0.0014469
0.00144973
0.0014525
0.00145503
0.00145706
0.0014581
0.00145783
0.00145543
0.00144999
0.00144041
0.00142536
0.00140325
0.00137222
0.00133007
0.00127408
0.0012008
0.0011054
0.000980246
0.000810363
0.000556131
0.000143814
0.000177371
0.000649278
0.000904302
0.00106939
0.00118751
0.00127465
0.00133931
0.00138704
0.00142189
0.00144699
0.00146482
0.00147737
0.00148617
0.00149242
0.00149702
0.00150059
0.00150359
0.0015063
0.00150891
0.00151148
0.00151401
0.00151641
0.00151851
0.00151994
0.00152035
0.00151921
0.00151571
0.00150891
0.00149765
0.00148056
0.00145603
0.00142217
0.00137676
0.00131708
0.00123965
0.00113961
0.00100923
0.000833331
0.000571426
0.000148934
0.000184581
0.000669861
0.000931987
0.00110216
0.00122436
0.00131486
0.0013823
0.0014323
0.00146895
0.00149544
0.00151431
0.00152758
0.00153686
0.00154339
0.00154809
0.00155167
0.00155458
0.00155715
0.00155956
0.00156189
0.00156415
0.00156622
0.00156791
0.00156881
0.00156865
0.00156671
0.00156222
0.00155417
0.00154138
0.00152245
0.00149572
0.00145931
0.00141095
0.00134794
0.00126678
0.00116263
0.00102774
0.000846791
0.000578699
0.000151272
0.000189822
0.000684948
0.000952523
0.00112674
0.00125225
0.00134553
0.00141527
0.00146715
0.00150531
0.00153297
0.00155271
0.00156659
0.00157627
0.00158302
0.00158783
0.0015914
0.00159424
0.00159669
0.00159894
0.00160109
0.00160312
0.00160493
0.00160626
0.00160679
0.00160611
0.00160352
0.00159818
0.00158907
0.00157497
0.00155442
0.00152576
0.00148706
0.00143604
0.00136998
0.00128539
0.00117743
0.00103842
0.000852813
0.000580319
0.000151741
0.00019362
0.000695991
0.000967712
0.0011451
0.00127327
0.00136879
0.00144041
0.00149384
0.00153323
0.00156185
0.0015823
0.00159669
0.00160669
0.00161363
0.00161852
0.0016221
0.00162489
0.00162726
0.0016294
0.00163143
0.00163332
0.00163496
0.00163605
0.00163634
0.0016353
0.00163224
0.00162628
0.00161636
0.00160121
0.00157935
0.00154906
0.00150837
0.00145496
0.00138607
0.00129821
0.00118655
0.00104343
0.000853884
0.000577783
0.0001509
0.000196397
0.000704128
0.00097898
0.00115883
0.00128909
0.0013864
0.00145953
0.00151419
0.00155457
0.00158395
0.00160497
0.00161975
0.00163002
0.00163711
0.00164207
0.00164567
0.00164845
0.00165078
0.00165289
0.00165487
0.00165672
0.00165832
0.00165934
0.00165954
0.00165836
0.00165507
0.00164878
0.00163838
0.00162256
0.00159977
0.00156823
0.00152589
0.00147038
0.00139884
0.00130773
0.00119225
0.00104488
0.000851139
0.000571339
0.000148737
0.000198484
0.000710246
0.00098745
0.00116918
0.00130106
0.00139976
0.00147407
0.00152969
0.00157084
0.00160081
0.00162226
0.00163735
0.00164782
0.00165503
0.00166006
0.0016637
0.0016665
0.00166886
0.001671
0.00167303
0.00167496
0.00167666
0.0016778
0.00167812
0.00167707
0.00167389
0.00166764
0.00165719
0.00164117
0.00161797
0.0015857
0.0015422
0.00148492
0.00141087
0.00131639
0.00119665
0.00104433
0.000845343
0.000561403
0.000145446
0.00020013
0.000715024
0.000993993
0.00117715
0.00131026
0.00141002
0.00148521
0.00154156
0.00158328
0.00161369
0.00163546
0.00165076
0.00166137
0.00166869
0.00167378
0.00167748
0.00168034
0.00168278
0.00168504
0.00168723
0.00168937
0.00169133
0.00169284
0.00169351
0.00169292
0.00169024
0.00168453
0.0016746
0.00165904
0.00163614
0.00160387
0.00155986
0.0015013
0.0014249
0.00132672
0.00120178
0.00104293
0.000837081
0.000547893
0.000141005
0.000201515
0.000718965
0.000999271
0.0011835
0.00131753
0.00141807
0.00149391
0.00155078
0.00159291
0.00162361
0.00164558
0.00166103
0.00167174
0.00167912
0.00168429
0.00168805
0.00169102
0.0016936
0.00169606
0.00169852
0.00170101
0.00170342
0.00170554
0.00170689
0.00170713
0.00170546
0.0017009
0.00169225
0.00167803
0.00165639
0.00162512
0.00158153
0.00152236
0.00144378
0.0013413
0.00120961
0.00104165
0.000826177
0.000529968
0.000135194
0.000202771
0.000722438
0.00100378
0.00118881
0.00132351
0.00142462
0.00150091
0.00155812
0.0016005
0.00163137
0.00165346
0.00166899
0.00167975
0.00168718
0.0016924
0.00169626
0.00169936
0.00170214
0.00170487
0.00170771
0.00171069
0.00171376
0.0017167
0.0017192
0.00172066
0.0017206
0.00171797
0.00171156
0.0016998
0.00168071
0.00165175
0.00160975
0.00155077
0.00147005
0.0013621
0.00122106
0.00103941
0.000810127
0.000504997
0.000127456
0.000203987
0.000725706
0.00100788
0.00119351
0.0013287
0.00143019
0.00150677
0.00156419
0.00160669
0.00163763
0.00165975
0.00167528
0.00168604
0.0016935
0.00169877
0.00170272
0.00170598
0.001709
0.00171208
0.00171539
0.00171901
0.00172293
0.00172699
0.00173094
0.00173435
0.00173646
0.00173669
0.00173366
0.00172574
0.00171071
0.00168557
0.00164637
0.00158803
0.00150437
0.00138822
0.00122994
0.00102877
0.000779868
0.000465722
0.000116529
0.000205229
0.00072896
0.00101184
0.00119793
0.00133347
0.0014352
0.00151193
0.00156942
0.00161193
0.00164284
0.00166491
0.00168039
0.00169111
0.00169855
0.00170386
0.00170791
0.00171134
0.00171463
0.0017181
0.00172196
0.00172636
0.00173132
0.00173678
0.00174258
0.0017484
0.00175377
0.00175768
0.00175923
0.00175659
0.00174714
0.0017271
0.00169121
0.00163244
0.0015422
0.00140712
0.00122381
0.000989199
0.000713176
0.000395467
9.9925e-05
0.000206541
0.000732334
0.00101584
0.00120231
0.00133807
0.00143994
0.0015167
0.00157416
0.00161658
0.00164737
0.00166931
0.00168467
0.0016953
0.00170269
0.001708
0.00171212
0.00171572
0.00171929
0.00172318
0.00172767
0.00173294
0.00173911
0.00174623
0.00175427
0.00176307
0.00177228
0.0017812
0.00178847
0.00179196
0.00178913
0.00177433
0.00174006
0.00167577
0.0015653
0.00140101
0.00117106
0.000889939
0.000595111
0.000285407
7.68889e-05
0.00020796
0.000735934
0.00102003
0.00120681
0.00134273
0.00144462
0.00152132
0.00157864
0.00162088
0.00165146
0.00167319
0.00168836
0.00169883
0.00170612
0.0017114
0.00171557
0.00171931
0.00172314
0.00172747
0.0017326
0.00173881
0.00174631
0.00175529
0.0017659
0.00177813
0.00179181
0.00180633
0.00182035
0.0018303
0.00183326
0.00182149
0.00178264
0.00169908
0.00155488
0.0013397
0.00108239
0.000827799
0.000558477
0.000248232
6.9749e-05
0.000209518
0.000739847
0.00102454
0.00121157
0.00134757
0.00144941
0.00152596
0.00158304
0.00162499
0.00165527
0.0016767
0.0016916
0.00170186
0.00170899
0.00171418
0.00171834
0.00172218
0.00172625
0.00173097
0.00173674
0.00174389
0.00175278
0.00176373
0.00177707
0.001793
0.00181145
0.00183177
0.00185224
0.00186802
0.00187356
0.00185854
0.00180283
0.00168463
0.00148865
0.00126639
0.00108097
0.000923616
0.000701692
0.000313128
0.000104335
0.00021125
0.000744156
0.00102945
0.00121671
0.00135273
0.00145443
0.00153072
0.00158746
0.00162902
0.0016589
0.00167995
0.0016945
0.00170446
0.00171136
0.00171639
0.00172049
0.00172436
0.00172859
0.00173365
0.00173999
0.00174803
0.00175826
0.00177116
0.00178721
0.00180676
0.00182977
0.00185537
0.00188106
0.00189881
0.00190214
0.00187271
0.00178403
0.00161711
0.00140519
0.00132215
0.00136451
0.00139243
0.00119919
0.000633726
0.000280091
0.000213193
0.000748948
0.00103487
0.00122233
0.0013583
0.00145977
0.00153569
0.00159197
0.00163303
0.00166239
0.00168295
0.00169706
0.00170664
0.00171324
0.00171804
0.001722
0.00172583
0.00173014
0.00173544
0.00174223
0.00175105
0.00176246
0.0017771
0.00179558
0.00181828
0.00184505
0.00187445
0.00190253
0.00191699
0.00191042
0.00185381
0.00171667
0.00153058
0.00148728
0.0016842
0.00193655
0.00199939
0.00183453
0.00118445
0.000667761
0.000215393
0.000754323
0.00104091
0.00122853
0.00136437
0.0014655
0.00154092
0.0015966
0.00163702
0.00166575
0.0016857
0.00169927
0.0017084
0.00171461
0.00171911
0.00172285
0.00172656
0.00173084
0.00173626
0.00174338
0.00175277
0.00176512
0.00178114
0.00180148
0.00182648
0.00185563
0.0018867
0.00191224
0.00192033
0.00189644
0.00180671
0.0016366
0.00156085
0.00169876
0.00217718
0.00242888
0.0025024
0.00237571
0.0017273
0.0010947
0.000217906
0.000760393
0.00104767
0.0012354
0.001371
0.00147164
0.00154641
0.00160133
0.00164096
0.00166892
0.00168817
0.00170111
0.0017097
0.00171546
0.00171959
0.00172304
0.00172653
0.00173071
0.00173614
0.0017434
0.00175315
0.00176611
0.00178302
0.00180449
0.00183064
0.00186046
0.00189066
0.00191
0.00190994
0.00186373
0.00173844
0.00160414
0.00160289
0.00194438
0.0025368
0.00283399
0.00294842
0.002867
0.00218118
0.00137919
0.000220801
0.000767291
0.00105529
0.00124303
0.00137825
0.00147822
0.00155213
0.00160612
0.0016448
0.00167186
0.00169029
0.00170252
0.00171051
0.00171577
0.0017195
0.00172266
0.00172594
0.00172996
0.00173531
0.00174259
0.00175247
0.00176565
0.00178288
0.00180465
0.00183075
0.0018596
0.00188681
0.00189986
0.00188719
0.00181954
0.00167565
0.00157358
0.0016292
0.00207601
0.00270239
0.0031677
0.00337085
0.0033617
0.00264878
0.00161419
0.00022416
0.000775165
0.00106387
0.00125149
0.00138613
0.0014852
0.00155803
0.00161087
0.00164842
0.00167445
0.00169199
0.00170347
0.00171084
0.00171562
0.001719
0.00172183
0.00172487
0.00172872
0.00173396
0.00174119
0.00175108
0.00176433
0.00178157
0.00180306
0.0018283
0.0018551
0.00187665
0.00188257
0.00185793
0.00177515
0.00162225
0.00152947
0.0016088
0.00207447
0.00272567
0.00333985
0.00374021
0.00381195
0.00310544
0.00184133
0.000228083
0.000784175
0.00107353
0.00126084
0.00139461
0.00149249
0.00156397
0.00161544
0.00165172
0.00167663
0.00169324
0.00170399
0.00171082
0.00171521
0.00171828
0.00172094
0.00172386
0.00172765
0.00173287
0.0017401
0.00174997
0.00176312
0.00178003
0.00180073
0.00182432
0.00184805
0.00186374
0.00186371
0.00182989
0.00173867
0.00158326
0.0014835
0.00155116
0.00198568
0.00266587
0.00340027
0.00403057
0.00422996
0.00354783
0.00202949
0.000232681
0.000794478
0.00108436
0.00127105
0.0014036
0.00149994
0.00156978
0.00161969
0.0016546
0.00167838
0.00169413
0.00170429
0.00171076
0.00171495
0.00171798
0.00172069
0.00172376
0.00172773
0.00173314
0.00174056
0.00175059
0.00176378
0.00178048
0.00180048
0.00182236
0.00184291
0.00185417
0.00184902
0.00181021
0.00171856
0.00156967
0.00145303
0.00148471
0.00186416
0.00255957
0.00341314
0.00424895
0.00460477
0.00397691
0.00220888
0.000238073
0.000806207
0.00109637
0.00128202
0.00141291
0.00150733
0.00157528
0.00162351
0.00165707
0.00167987
0.001695
0.00170487
0.00171126
0.00171561
0.00171895
0.00172209
0.00172566
0.0017302
0.00173624
0.00174429
0.00175489
0.0017685
0.00178532
0.00180495
0.00182589
0.00184467
0.00185381
0.00184583
0.00180647
0.00172083
0.00158454
0.00146077
0.00146458
0.00177334
0.00245674
0.00339242
0.00436338
0.00491229
0.00438532
0.00236996
0.000244378
0.000819445
0.0011095
0.00129356
0.00142228
0.00151444
0.00158036
0.00162701
0.00165948
0.0016817
0.00169671
0.00170676
0.00171366
0.00171876
0.00172307
0.00172734
0.00173217
0.00173807
0.00174552
0.00175501
0.00176701
0.00178186
0.00179964
0.00181975
0.00184046
0.00185813
0.00186612
0.00185746
0.00181973
0.00174151
0.00162316
0.00150386
0.00150103
0.00175165
0.00238707
0.00334785
0.00440397
0.00515043
0.00475552
0.00251527
0.000251763
0.000834147
0.00112356
0.00130538
0.00143146
0.0015212
0.00158529
0.0016308
0.00166286
0.00168532
0.001701
0.00171219
0.00172061
0.00172754
0.00173395
0.00174055
0.00174789
0.00175646
0.00176669
0.00177903
0.00179386
0.00181147
0.00183178
0.00185404
0.00187635
0.00189508
0.00190414
0.00189684
0.00186326
0.00179538
0.0016961
0.00159519
0.00159319
0.00179764
0.00235793
0.00328933
0.00440467
0.00531678
0.00509016
0.00265163
0.000260383
0.000850148
0.00113823
0.00131717
0.00144042
0.00152809
0.00159117
0.00163672
0.00166972
0.00169375
0.00171166
0.00172564
0.00173734
0.00174797
0.00175845
0.00176944
0.00178149
0.00179503
0.00181045
0.00182813
0.00184839
0.00187142
0.00189702
0.00192432
0.00195133
0.00197452
0.00198835
0.00198608
0.00196057
0.00190571
0.00182413
0.0017422
0.0017422
0.00190264
0.0023665
0.00323303
0.00435352
0.00541963
0.00537406
0.00277435
0.000270494
0.000867346
0.00115325
0.00132901
0.00145004
0.00153711
0.00160127
0.00164913
0.00168539
0.00171364
0.00173661
0.00175638
0.00177454
0.00179227
0.00181045
0.00182972
0.00185058
0.00187346
0.00189866
0.00192643
0.00195696
0.0019903
0.00202613
0.00206349
0.00210044
0.00213359
0.00215773
0.00216624
0.0021533
0.00211436
0.00204994
0.00198291
0.00197972
0.0020993
0.0024665
0.00321669
0.00431896
0.00548888
0.00559181
0.00289183
0.00028177
0.000885298
0.00116879
0.0013425
0.00146413
0.00155447
0.00162363
0.00167815
0.00172255
0.00176019
0.00179371
0.00182513
0.00185608
0.00188774
0.00192094
0.00195631
0.00199432
0.00203533
0.00207949
0.00212677
0.00217709
0.00223035
0.00228585
0.00234238
0.00239801
0.00244958
0.00249228
0.00252002
0.00252583
0.00250871
0.002467
0.00241557
0.00240726
0.00248923
0.00276094
0.00336013
0.00435491
0.00556013
0.00570819
0.00300899
0.000296919
0.000905695
0.00118768
0.00136513
0.00149463
0.00159613
0.00167949
0.0017507
0.0018139
0.00187224
0.00192827
0.0019841
0.00204146
0.00210171
0.00216547
0.00223313
0.00230494
0.00238115
0.0024617
0.00254575
0.00263265
0.00272222
0.00281312
0.00290341
0.00299079
0.00307231
0.00314418
0.00320133
0.00323784
0.00324839
0.00323705
0.00320896
0.00319792
0.00324611
0.0034206
0.00383855
0.00462086
0.00570754
0.0057709
0.00307918
0.000311312
0.000930964
0.00122479
0.00142163
0.00157847
0.00171332
0.00183462
0.00194752
0.00205554
0.00216137
0.00226731
0.00237542
0.00248763
0.00260585
0.00272959
0.002858
0.00299041
0.00312676
0.00326782
0.00341045
0.003553
0.0036934
0.00383043
0.00396291
0.00408889
0.00420635
0.0043124
0.0044033
0.00447445
0.00452107
0.00454018
0.00453674
0.00452635
0.00454343
0.00462086
0.00483971
0.00527369
0.00599357
0.00579381
0.00310902
0.000342612
0.000982939
0.00133358
0.00160951
0.0018564
0.00208721
0.00230876
0.0025245
0.00273601
0.00294442
0.0031509
0.00335686
0.00356403
0.00377747
0.00399233
0.00420511
0.00441437
0.00461871
0.00481491
0.00500441
0.00518731
0.00536327
0.00553152
0.00569112
0.00584058
0.0059788
0.00610427
0.00621402
0.00630585
0.00637409
0.00641865
0.00642937
0.0064218
0.00641002
0.00641497
0.00645967
0.00645626
0.00644889
0.00579289
0.00310892
0.000356707
0.00109326
0.00171216
0.00227948
0.00278035
0.00323905
0.00366929
0.004075
0.00445572
0.00481157
0.00514386
0.00545497
0.00574754
0.00601651
0.00626437
0.00649464
0.00670992
0.00691204
0.00710122
0.00727872
0.00744486
0.0076005
0.00774569
0.00788014
0.00800499
0.00811788
0.0082208
0.00830691
0.00838231
0.00843181
0.00847056
0.00846936
0.00845568
0.00840649
0.00828374
0.00801665
0.00746405
0.00669787
0.00545897
0.00292777
0.000255873
0.00040656
0.000636183
0.000848961
0.0010433
0.00122096
0.00138548
0.00154084
0.0016892
0.00183181
0.00196931
0.00210165
0.00223025
0.00235402
0.00247273
0.00258625
0.00269547
0.00280003
0.00290145
0.00299821
0.00309311
0.00318289
0.00327235
0.00335556
0.00344008
0.00351688
0.0035964
0.00366566
0.00373751
0.00379515
0.00385123
0.00388793
0.00390946
0.003904
0.00389055
0.00386131
0.00379776
0.00368168
0.00344367
0.00277711
)
;

boundaryField
{
    movingWall
    {
        type            kqRWallFunction;
        value           nonuniform List<scalar> 
40
(
0.000255873
0.00040656
0.000636183
0.000848961
0.0010433
0.00122096
0.00138548
0.00154084
0.0016892
0.00183181
0.00196931
0.00210165
0.00223025
0.00235402
0.00247273
0.00258625
0.00269547
0.00280003
0.00290145
0.00299821
0.00309311
0.00318289
0.00327235
0.00335556
0.00344008
0.00351688
0.0035964
0.00366566
0.00373751
0.00379515
0.00385123
0.00388793
0.00390946
0.003904
0.00389055
0.00386131
0.00379776
0.00368168
0.00344367
0.00277711
)
;
    }
    fixedWalls
    {
        type            kqRWallFunction;
        value           nonuniform List<scalar> 
120
(
1.39339e-05
4.73954e-05
8.39863e-05
0.000113741
0.000136771
0.000154329
0.000167548
0.000177371
0.000184581
0.000189822
0.00019362
0.000196397
0.000198484
0.00020013
0.000201515
0.000202771
0.000203987
0.000205229
0.000206541
0.00020796
0.000209518
0.00021125
0.000213193
0.000215393
0.000217906
0.000220801
0.00022416
0.000228083
0.000232681
0.000238073
0.000244378
0.000251763
0.000260383
0.000270494
0.00028177
0.000296919
0.000311312
0.000342612
0.000356707
0.000255873
1.3936e-05
4.6598e-05
7.96421e-05
0.000104778
0.000122869
0.000135459
0.000143814
0.000148934
0.000151272
0.000151741
0.0001509
0.000148737
0.000145446
0.000141005
0.000135194
0.000127456
0.000116529
9.9925e-05
7.68889e-05
6.9749e-05
0.000104335
0.000280091
0.000667761
0.0010947
0.00137919
0.00161419
0.00184133
0.00202949
0.00220888
0.00236996
0.00251527
0.00265163
0.00277435
0.00289183
0.00300899
0.00307918
0.00310902
0.00310892
0.00292777
0.00277711
1.39339e-05
4.6726e-05
8.0407e-05
0.00010647
0.000125738
0.000139772
0.000149845
0.000156963
0.000161929
0.000165382
0.000167815
0.000169594
0.00017098
0.00017215
0.000173219
0.00017426
0.000175317
0.000176416
0.000177569
0.00017878
0.000180045
0.000181349
0.000182673
0.000184013
0.000185486
0.00018692
0.000188166
0.000189005
0.000189293
0.000188731
0.000186873
0.000183262
0.000177323
0.000168384
0.000155653
0.000138202
0.00011494
8.46854e-05
4.74267e-05
1.3936e-05
)
;
    }
    frontAndBack
    {
        type            empty;
    }
}


// ************************************************************************* //
