/*--------------------------------*- C++ -*----------------------------------*\
  =========                 |
  \\      /  F ield         | OpenFOAM: The Open Source CFD Toolbox
   \\    /   O peration     | Website:  https://openfoam.org
    \\  /    A nd           | Version:  12
     \\/     M anipulation  |
\*---------------------------------------------------------------------------*/
FoamFile
{
    format      ascii;
    class       volScalarField;
    location    "0.6";
    object      nut;
}
// * * * * * * * * * * * * * * * * * * * * * * * * * * * * * * * * * * * * * //

dimensions      [0 2 -1 0 0 0 0];

internalField   nonuniform List<scalar> 
1600
(
9.67627e-08
3.25548e-07
5.60748e-07
7.42888e-07
8.77657e-07
9.75901e-07
1.04649e-06
1.09643e-06
1.13132e-06
1.1556e-06
1.17273e-06
1.18526e-06
1.19503e-06
1.20327e-06
1.2108e-06
1.21814e-06
1.22559e-06
1.23333e-06
1.24146e-06
1.25e-06
1.25892e-06
1.26813e-06
1.27747e-06
1.28693e-06
1.2973e-06
1.30741e-06
1.31619e-06
1.32209e-06
1.32411e-06
1.32013e-06
1.30702e-06
1.28159e-06
1.23983e-06
1.17704e-06
1.08771e-06
9.65388e-07
8.02498e-07
5.90844e-07
3.30467e-07
9.67787e-08
3.30242e-07
7.71397e-06
1.37958e-05
1.75057e-05
1.9998e-05
2.17675e-05
2.30522e-05
2.39893e-05
2.46719e-05
2.51687e-05
2.55336e-05
2.58087e-05
2.60262e-05
2.62099e-05
2.63769e-05
2.65389e-05
2.67036e-05
2.68763e-05
2.706e-05
2.72564e-05
2.74656e-05
2.76854e-05
2.79093e-05
2.81244e-05
2.8302e-05
2.84503e-05
2.85637e-05
2.86186e-05
2.85982e-05
2.84553e-05
2.81503e-05
2.76311e-05
2.68343e-05
2.56808e-05
2.4066e-05
2.18432e-05
1.87772e-05
1.43946e-05
7.59861e-06
3.24637e-07
5.85874e-07
1.43666e-05
2.71309e-05
3.53169e-05
4.09059e-05
4.48913e-05
4.78034e-05
4.99343e-05
5.14833e-05
5.26031e-05
5.34134e-05
5.40084e-05
5.44609e-05
5.48249e-05
5.51394e-05
5.54313e-05
5.57181e-05
5.60111e-05
5.63164e-05
5.66367e-05
5.69713e-05
5.73152e-05
5.76586e-05
5.79853e-05
5.82711e-05
5.84986e-05
5.86265e-05
5.8632e-05
5.84339e-05
5.79589e-05
5.71187e-05
5.58078e-05
5.38996e-05
5.12378e-05
4.76166e-05
4.27359e-05
3.61146e-05
2.69098e-05
1.34276e-05
5.55326e-07
7.93963e-07
1.86725e-05
3.62161e-05
4.8e-05
5.62531e-05
6.22318e-05
6.6607e-05
6.98119e-05
7.21473e-05
7.38361e-05
7.50529e-05
7.59359e-05
7.65928e-05
7.71046e-05
7.75304e-05
7.7911e-05
7.82737e-05
7.86354e-05
7.90058e-05
7.93885e-05
7.97822e-05
8.01802e-05
8.05696e-05
8.09302e-05
8.12334e-05
8.1431e-05
8.14906e-05
8.13344e-05
8.08659e-05
7.99805e-05
7.85533e-05
7.64383e-05
7.34628e-05
6.94173e-05
6.40303e-05
5.69194e-05
4.74878e-05
3.47148e-05
1.68922e-05
7.30898e-07
9.55189e-07
2.17007e-05
4.276e-05
5.73506e-05
6.7761e-05
7.53836e-05
8.1016e-05
8.51719e-05
8.8215e-05
9.04217e-05
9.20108e-05
9.31571e-05
9.39977e-05
9.46375e-05
9.51531e-05
9.55988e-05
9.60109e-05
9.64122e-05
9.68156e-05
9.72262e-05
9.76419e-05
9.8054e-05
9.84458e-05
9.87905e-05
9.90489e-05
9.91519e-05
9.90826e-05
9.87052e-05
9.79207e-05
9.65994e-05
9.45908e-05
9.17214e-05
8.77898e-05
8.25547e-05
7.5709e-05
6.68276e-05
5.52577e-05
3.98879e-05
1.91405e-05
8.5733e-07
1.07823e-06
2.39281e-05
4.7637e-05
6.4439e-05
7.66067e-05
8.56105e-05
9.23205e-05
9.73056e-05
0.000100976
0.000103647
0.000105572
0.000106955
0.000107959
0.000108707
0.000109294
0.000109784
0.000110224
0.000110641
0.000111052
0.000111463
0.000111871
0.000112266
0.000112626
0.000112918
0.000113082
0.000113073
0.000112825
0.000112201
0.000111083
0.000109328
0.000106766
0.000103207
9.84334e-05
9.21885e-05
8.41492e-05
7.3875e-05
6.06991e-05
4.34073e-05
2.06423e-05
9.45361e-07
1.17098e-06
2.55945e-05
5.13336e-05
6.98833e-05
8.34769e-05
9.36295e-05
0.000101254
0.000106954
0.000111173
0.000114255
0.000116479
0.000118074
0.00011922
0.000120061
0.000120703
0.000121224
0.000121675
0.000122092
0.000122493
0.000122885
0.000123265
0.00012362
0.000123925
0.000124137
0.000124188
0.000124044
0.000123597
0.000122713
0.000121263
0.000119087
0.000116009
0.000111828
0.00010632
9.92231e-05
9.02119e-05
7.8845e-05
6.44593e-05
4.57846e-05
2.16191e-05
1.0038e-06
1.24e-06
2.68465e-05
5.41505e-05
7.40773e-05
8.88197e-05
9.99171e-05
0.000108307
0.000114616
0.000119307
0.000122746
0.000125232
0.000127011
0.000128281
0.000129198
0.000129883
0.000130422
0.000130874
0.000131278
0.000131656
0.000132017
0.000132356
0.000132658
0.000132893
0.000133005
0.000132943
0.000132642
0.000131991
0.000130847
0.000129071
0.000126498
0.000122944
0.000118206
0.00011206
0.000104247
9.44475e-05
8.22284e-05
6.69377e-05
4.73045e-05
2.2196e-05
1.03958e-06
1.29072e-06
2.77856e-05
5.6293e-05
7.72978e-05
9.29566e-05
0.000104821
0.000113842
0.000120659
0.00012575
0.000129493
0.000132203
0.000134138
0.000135512
0.000136492
0.000137208
0.000137755
0.000138199
0.000138583
0.000138932
0.000139254
0.000139545
0.000139786
0.000139943
0.000139951
0.000139771
0.000139306
0.000138452
0.000137055
0.000134969
0.000132024
0.000128035
0.0001228
0.000116099
0.000107683
9.72448e-05
8.43662e-05
6.84156e-05
4.81177e-05
2.24064e-05
1.05583e-06
1.32763e-06
2.84871e-05
5.79137e-05
7.97549e-05
9.6136e-05
0.000108614
0.000118147
0.000125381
0.000130802
0.000134798
0.000137693
0.000139759
0.000141217
0.000142246
0.000142984
0.000143532
0.000143963
0.000144323
0.000144639
0.000144919
0.000145159
0.000145338
0.000145411
0.000145326
0.000145023
0.000144397
0.000143347
0.00014171
0.000139332
0.000136041
0.000131654
0.000125972
0.000118786
0.000109857
9.88966e-05
8.55062e-05
6.90786e-05
4.83194e-05
2.23539e-05
1.059e-06
1.35442e-06
2.90092e-05
5.91328e-05
8.16165e-05
9.85599e-05
0.000111522
0.000121461
0.00012903
0.000134717
0.000138918
0.000141963
0.000144133
0.000145657
0.000146723
0.000147475
0.00014802
0.000148435
0.00014877
0.000149052
0.000149292
0.000149483
0.000149602
0.000149597
0.000149424
0.000149005
0.000148231
0.000146987
0.000145128
0.000142477
0.000138866
0.000134111
0.000128022
0.000120401
0.000111027
9.96297e-05
8.5836e-05
6.90618e-05
4.80783e-05
2.20895e-05
1.05293e-06
1.37403e-06
2.93982e-05
6.00475e-05
8.30206e-05
0.000100396
0.000113732
0.00012399
0.00013182
0.000137716
0.000142078
0.00014524
0.00014749
0.000149064
0.000150156
0.000150915
0.000151454
0.000151853
0.000152164
0.000152416
0.000152619
0.000152767
0.000152834
0.00015276
0.000152507
0.000151983
0.000151075
0.000149653
0.000147581
0.000144679
0.000140766
0.000135665
0.000129195
0.000121171
0.000111391
9.9613e-05
8.54944e-05
6.84843e-05
4.74403e-05
2.15914e-05
1.03753e-06
1.38877e-06
2.96912e-05
6.07371e-05
8.40807e-05
0.000101784
0.000115406
0.000125905
0.000133936
0.000139991
0.000144473
0.000147724
0.000150033
0.000151642
0.00015275
0.000153512
0.000154044
0.000154427
0.000154717
0.000154944
0.000155118
0.00015523
0.000155254
0.000155127
0.000154803
0.000154188
0.000153162
0.000151585
0.000149304
0.000146163
0.000141963
0.000136525
0.000129679
0.000121257
0.000111081
9.89429e-05
8.45422e-05
6.73761e-05
4.64112e-05
2.08762e-05
1.01415e-06
1.40039e-06
2.99174e-05
6.12653e-05
8.48899e-05
0.00010284
0.000116675
0.000127355
0.000135533
0.000141705
0.000146275
0.000149588
0.000151937
0.000153569
0.000154686
0.000155447
0.000155971
0.000156342
0.000156615
0.000156823
0.000156975
0.000157062
0.000157053
0.000156892
0.000156506
0.000155817
0.000154687
0.000152971
0.000150504
0.000147109
0.000142615
0.000136838
0.000129591
0.000120738
0.000110133
9.76126e-05
8.29355e-05
6.56608e-05
4.49579e-05
1.99233e-05
9.82615e-07
1.41016e-06
3.00996e-05
6.16826e-05
8.55223e-05
0.000103658
0.00011765
0.000128461
0.000136744
0.000142996
0.000147625
0.000150978
0.000153351
0.000154996
0.000156116
0.000156874
0.00015739
0.000157751
0.000158014
0.00015821
0.000158349
0.000158421
0.000158393
0.000158212
0.000157779
0.000157028
0.000155809
0.000153963
0.000151312
0.000147666
0.000142835
0.000136635
0.00012895
0.000119571
0.000108435
9.54511e-05
8.04752e-05
6.31731e-05
4.29218e-05
1.86707e-05
9.41326e-07
1.419e-06
3.02547e-05
6.20279e-05
8.6036e-05
0.000104312
0.000118418
0.00012932
0.000137673
0.000143977
0.000148642
0.000152016
0.000154401
0.000156048
0.000157167
0.000157919
0.000158429
0.000158783
0.00015904
0.000159232
0.000159367
0.000159433
0.000159398
0.000159202
0.00015876
0.000157943
0.000156644
0.000154669
0.000151818
0.000147879
0.000142642
0.000135911
0.000127526
0.000117519
0.000105644
9.20137e-05
7.66787e-05
5.94134e-05
3.99554e-05
1.69771e-05
8.86201e-07
1.42755e-06
3.03955e-05
6.23305e-05
8.64753e-05
0.000104858
0.000119046
0.000130009
0.000138405
0.000144738
0.000149418
0.000152799
0.000155184
0.000156827
0.000157939
0.000158685
0.000159188
0.000159539
0.000159795
0.000159987
0.000160126
0.000160197
0.000160165
0.000159967
0.00015951
0.000158672
0.000157263
0.000155141
0.000152041
0.000147718
0.000141919
0.000134424
0.000125082
0.000113876
0.000101096
8.64625e-05
7.02671e-05
5.33383e-05
3.52997e-05
1.45438e-05
8.08033e-07
1.43626e-06
3.05311e-05
6.26119e-05
8.68733e-05
0.000105339
0.000119586
0.000130586
0.000139005
0.000145346
0.000150027
0.000153402
0.000155777
0.00015741
0.000158511
0.000159248
0.000159747
0.000160095
0.000160352
0.000160551
0.000160699
0.000160782
0.000160761
0.000160568
0.000160101
0.000159219
0.000157736
0.000155382
0.000151924
0.000147041
0.000140412
0.000131764
0.000120942
0.000107972
9.35394e-05
7.71739e-05
6.01e-05
4.34225e-05
2.76101e-05
1.08645e-05
6.88618e-07
1.44546e-06
3.06682e-05
6.2888e-05
8.72543e-05
0.000105789
0.000120076
0.000131096
0.000139519
0.000145855
0.000150522
0.00015388
0.000156237
0.000157853
0.000158941
0.000159667
0.000160159
0.000160506
0.000160767
0.000160974
0.000161135
0.000161235
0.000161229
0.000161043
0.00016056
0.000159614
0.000157981
0.000155362
0.000151372
0.000145592
0.000137735
0.00012738
0.000114389
9.89114e-05
8.1411e-05
6.36271e-05
4.51561e-05
2.9239e-05
1.70145e-05
5.94574e-06
5.2832e-07
1.45541e-06
3.0812e-05
6.31705e-05
8.7636e-05
0.000106229
0.000120543
0.00013157
0.000139983
0.000146299
0.000150942
0.000154274
0.000156606
0.000158199
0.000159268
0.000159982
0.000160466
0.000160811
0.000161075
0.000161291
0.000161466
0.000161581
0.000161589
0.000161402
0.000160886
0.000159837
0.000157974
0.000154917
0.000150199
0.000143133
0.000133464
0.000120761
0.000104845
8.60033e-05
6.5593e-05
4.62222e-05
2.98084e-05
1.90079e-05
1.12145e-05
3.97537e-06
4.87137e-07
1.46633e-06
3.09665e-05
6.34686e-05
8.8032e-05
0.000106676
0.000121009
0.000132029
0.000140421
0.000146706
0.000151314
0.00015461
0.000156909
0.000158474
0.00015952
0.000160217
0.00016069
0.000161031
0.000161297
0.00016152
0.000161706
0.000161833
0.000161845
0.000161642
0.000161058
0.000159843
0.000157636
0.000153947
0.000148171
0.000139454
0.000127383
0.000111745
9.2401e-05
7.04961e-05
4.83571e-05
3.10378e-05
2.12173e-05
1.54366e-05
1.04027e-05
3.53842e-06
7.61422e-07
1.47846e-06
3.11356e-05
6.379e-05
8.84531e-05
0.000107144
0.000121486
0.00013249
0.000140849
0.000147092
0.000151654
0.000154906
0.000157164
0.000158694
0.000159712
0.000160388
0.000160847
0.00016118
0.000161443
0.000161668
0.000161859
0.000161988
0.00016199
0.000161744
0.000161046
0.000159584
0.000156899
0.000152376
0.000145267
0.000134403
0.000119704
0.000100816
7.8254e-05
5.45129e-05
3.45255e-05
2.49851e-05
2.23919e-05
2.19453e-05
1.67748e-05
6.43074e-06
2.07864e-06
1.49207e-06
3.1323e-05
6.41416e-05
8.8908e-05
0.000107643
0.000121986
0.000132962
0.000141276
0.000147465
0.000151971
0.000155168
0.000157378
0.000158866
0.000159851
0.0001605
0.00016094
0.00016126
0.000161515
0.000161736
0.000161922
0.00016204
0.000162012
0.000161689
0.000160823
0.000159029
0.000155744
0.000150221
0.000141563
0.000128334
0.000111032
8.91545e-05
6.41739e-05
4.20778e-05
3.12634e-05
3.00842e-05
3.21977e-05
3.15599e-05
2.59284e-05
1.19166e-05
4.86964e-06
1.50748e-06
3.1533e-05
6.45305e-05
8.94048e-05
0.000108179
0.000122514
0.000133451
0.000141706
0.000147828
0.000152266
0.000155399
0.000157551
0.00015899
0.000159935
0.000160552
0.000160967
0.000161267
0.000161506
0.000161713
0.000161884
0.000161977
0.000161895
0.000161463
0.000160382
0.000158191
0.000154233
0.000147662
0.000137248
0.000122124
0.000102596
7.86577e-05
5.35521e-05
3.88345e-05
3.40871e-05
4.09234e-05
4.23566e-05
4.05684e-05
3.50115e-05
1.8372e-05
7.82419e-06
1.52508e-06
3.17701e-05
6.49637e-05
8.99505e-05
0.000108759
0.000123073
0.000133956
0.000142138
0.000148178
0.000152533
0.00015559
0.000157675
0.000159057
0.000159954
0.000160532
0.000160913
0.000161185
0.000161403
0.000161588
0.00016173
0.000161783
0.00016163
0.000161065
0.000159741
0.000157134
0.00015251
0.000144967
0.000133007
0.000116732
9.55426e-05
7.03203e-05
4.95264e-05
3.84753e-05
4.07693e-05
5.14287e-05
5.30665e-05
4.9956e-05
4.43128e-05
2.5278e-05
9.76478e-06
1.54536e-06
3.20397e-05
6.54481e-05
9.05505e-05
0.000109384
0.000123663
0.000134472
0.000142561
0.000148501
0.000152758
0.000155725
0.000157731
0.000159046
0.000159886
0.000160416
0.000160763
0.000161006
0.000161194
0.000161351
0.000161461
0.000161462
0.000161221
0.000160507
0.000158944
0.000155959
0.000150792
0.00014253
0.000129804
0.000112754
9.09197e-05
6.60918e-05
4.86047e-05
4.0176e-05
4.6075e-05
5.75351e-05
6.27387e-05
5.84017e-05
5.29352e-05
3.23289e-05
1.14149e-05
1.56889e-06
3.23474e-05
6.59904e-05
9.12082e-05
0.000110052
0.000124274
0.000134986
0.000142957
0.000148774
0.000152913
0.000155772
0.000157684
0.00015892
0.000159692
0.000160169
0.000160461
0.000160658
0.000160807
0.000160926
0.000160997
0.000160953
0.000160651
0.000159836
0.000158105
0.000154881
0.00014941
0.000140607
0.000127656
0.000110262
8.83397e-05
6.43875e-05
4.85856e-05
4.16054e-05
4.86892e-05
6.03314e-05
6.84776e-05
6.58626e-05
5.96514e-05
3.87618e-05
1.29954e-05
1.59636e-06
3.26986e-05
6.65971e-05
9.19213e-05
0.000110754
0.000124888
0.000135468
0.000143289
0.000148953
0.000152947
0.000155676
0.000157474
0.000158612
0.000159301
0.000159703
0.000159938
0.000160083
0.000160187
0.000160263
0.000160291
0.000160199
0.000159842
0.00015896
0.000157141
0.000153807
0.000148224
0.000139202
0.000126453
0.000109499
8.85553e-05
6.58466e-05
5.04784e-05
4.35158e-05
4.98541e-05
6.19966e-05
7.11385e-05
7.21322e-05
6.54129e-05
4.46057e-05
1.43076e-05
1.62855e-06
3.30984e-05
6.72705e-05
9.268e-05
0.000111467
0.000125469
0.000135871
0.000143495
0.000148962
0.000152772
0.000155336
0.000156989
0.000158004
0.000158586
0.000158899
0.000159056
0.000159133
0.000159174
0.000159193
0.000159172
0.000159042
0.000158661
0.000157782
0.000156005
0.00015275
0.000147316
0.000138736
0.000126796
0.000110912
9.14005e-05
7.01686e-05
5.42829e-05
4.62584e-05
5.11647e-05
6.33816e-05
7.3816e-05
7.73008e-05
6.99522e-05
4.96312e-05
1.55667e-05
1.6663e-06
3.35511e-05
6.80037e-05
9.34623e-05
0.000112148
0.00012595
0.000136104
0.000143463
0.000148669
0.000152234
0.000154576
0.000156034
0.000156872
0.000157299
0.00015747
0.000157496
0.000157453
0.000157388
0.00015732
0.000157233
0.000157067
0.000156695
0.000155888
0.000154289
0.000151394
0.000146539
0.000138806
0.000128169
0.000114017
9.65349e-05
7.70738e-05
6.09889e-05
5.21218e-05
5.45928e-05
6.57915e-05
7.63317e-05
8.03344e-05
7.34818e-05
5.3781e-05
1.66899e-05
1.71043e-06
3.40578e-05
6.87801e-05
9.42232e-05
0.000112717
0.000126216
0.000136011
0.000142995
0.000147834
0.000151054
0.000153082
0.000154248
0.000154819
0.000155003
0.00015495
0.00015477
0.00015454
0.000154307
0.000154097
0.000153904
0.000153686
0.00015334
0.000152674
0.000151382
0.000149022
0.000144995
0.000138536
0.00012928
0.000117054
0.000102045
8.52679e-05
6.97661e-05
6.11216e-05
6.13202e-05
7.00491e-05
7.87842e-05
8.16719e-05
7.61703e-05
5.71772e-05
1.77081e-05
1.76211e-06
3.46112e-05
6.95637e-05
9.48786e-05
0.000113029
0.000126049
0.000135302
0.000141727
0.000146022
0.000148737
0.000150286
0.000151008
0.000151172
0.000150979
0.000150578
0.000150075
0.000149546
0.000149043
0.0001486
0.000148225
0.000147898
0.000147553
0.000147051
0.000146152
0.000144494
0.000141583
0.000136782
0.000129652
0.000119736
0.000107197
9.31428e-05
7.98544e-05
7.21131e-05
7.02134e-05
7.51466e-05
8.13546e-05
8.30766e-05
7.79546e-05
5.98613e-05
1.86591e-05
1.82243e-06
3.51978e-05
7.02851e-05
9.52694e-05
0.0001128
0.000125031
0.000133418
0.000138987
0.000142467
0.000144396
0.000145218
0.000145276
0.000144834
0.000144086
0.000143176
0.000142205
0.000141248
0.000140358
0.000139576
0.000138924
0.000138409
0.000138002
0.000137618
0.000137097
0.000136175
0.000134475
0.000131512
0.000126827
0.000120074
0.000111123
0.000100544
8.97308e-05
8.28332e-05
7.8919e-05
7.89855e-05
8.26089e-05
8.31657e-05
7.85994e-05
6.1902e-05
1.95135e-05
1.89322e-06
3.58038e-05
7.08044e-05
9.50674e-05
0.000111435
0.000122323
0.000129366
0.000133602
0.000135806
0.000136573
0.000136358
0.000135504
0.000134263
0.000132817
0.000131294
0.000129787
0.000128363
0.000127072
0.000125955
0.000125039
0.000124341
0.000123859
0.000123556
0.00012334
0.000123048
0.00012242
0.000121092
0.000118655
0.000114844
0.000109438
0.000102372
9.44758e-05
8.88197e-05
8.41411e-05
8.18198e-05
8.2875e-05
8.27608e-05
7.85136e-05
6.31903e-05
2.03324e-05
1.97218e-06
3.63981e-05
7.08009e-05
9.34924e-05
0.000107792
0.0001165
0.000121355
0.000123569
0.000124001
0.000123276
0.000121845
0.000120025
0.000118036
0.000116029
0.000114102
0.000112322
0.000110738
0.000109387
0.000108291
0.000107461
0.000106907
0.000106633
0.00010661
0.000106776
0.000107036
0.000107227
0.000107096
0.000106334
0.000104583
0.000101867
9.7839e-05
9.26292e-05
8.83241e-05
8.43394e-05
8.1604e-05
8.13896e-05
8.16189e-05
7.75642e-05
6.28993e-05
2.11484e-05
2.07839e-06
3.68756e-05
6.95121e-05
8.91017e-05
9.97629e-05
0.000104945
0.000106762
0.000106551
0.000105184
0.000103229
0.00010105
9.88795e-05
9.68595e-05
9.50758e-05
9.35646e-05
9.23428e-05
9.14208e-05
9.08085e-05
9.05063e-05
9.0474e-05
9.0691e-05
9.11741e-05
9.1873e-05
9.27114e-05
9.36123e-05
9.44764e-05
9.51744e-05
9.55172e-05
9.52663e-05
9.41741e-05
9.23414e-05
8.95299e-05
8.65124e-05
8.36161e-05
8.11952e-05
8.00725e-05
8.01401e-05
7.59963e-05
6.17629e-05
2.16357e-05
2.17947e-06
3.67695e-05
6.55989e-05
7.90288e-05
8.41969e-05
8.53729e-05
8.46537e-05
8.3127e-05
8.13766e-05
7.9712e-05
7.82903e-05
7.71868e-05
7.64413e-05
7.60847e-05
7.60615e-05
7.63201e-05
7.68294e-05
7.75882e-05
7.86427e-05
7.98535e-05
8.11669e-05
8.25207e-05
8.38979e-05
8.52792e-05
8.66247e-05
8.79027e-05
8.90555e-05
8.99914e-05
9.05758e-05
9.06527e-05
9.00768e-05
8.88196e-05
8.71184e-05
8.51808e-05
8.30017e-05
8.07961e-05
7.87865e-05
7.3399e-05
5.99125e-05
2.18424e-05
2.39931e-06
3.57159e-05
5.59637e-05
6.15392e-05
6.27632e-05
6.28542e-05
6.26774e-05
6.2558e-05
6.2625e-05
6.29198e-05
6.34474e-05
6.42017e-05
6.51914e-05
6.65467e-05
6.80938e-05
6.97252e-05
7.14022e-05
7.30882e-05
7.47041e-05
7.629e-05
7.7856e-05
7.93933e-05
8.08963e-05
8.23456e-05
8.36825e-05
8.4931e-05
8.60798e-05
8.70958e-05
8.79182e-05
8.84562e-05
8.86722e-05
8.82672e-05
8.76482e-05
8.64245e-05
8.46909e-05
8.1746e-05
7.76631e-05
6.87277e-05
5.64097e-05
2.18402e-05
2.50006e-06
3.09347e-05
4.24621e-05
4.64745e-05
4.91119e-05
5.1504e-05
5.36405e-05
5.55871e-05
5.73871e-05
5.90736e-05
6.06754e-05
6.22178e-05
6.37337e-05
6.51083e-05
6.63865e-05
6.76119e-05
6.88083e-05
6.99808e-05
7.11209e-05
7.22288e-05
7.33066e-05
7.43546e-05
7.53692e-05
7.63416e-05
7.72941e-05
7.82088e-05
7.90703e-05
7.98508e-05
8.05491e-05
8.10707e-05
8.15376e-05
8.15733e-05
8.14927e-05
8.10433e-05
7.98929e-05
7.7277e-05
7.23898e-05
6.28378e-05
4.7492e-05
2.05608e-05
1.7929e-06
2.84994e-06
4.46161e-06
5.9556e-06
7.32027e-06
8.56759e-06
9.72254e-06
1.08132e-05
1.18551e-05
1.28567e-05
1.38227e-05
1.47522e-05
1.56557e-05
1.65256e-05
1.73601e-05
1.8158e-05
1.89258e-05
1.96607e-05
2.03736e-05
2.10537e-05
2.17206e-05
2.23516e-05
2.29801e-05
2.35649e-05
2.41584e-05
2.46982e-05
2.52561e-05
2.57427e-05
2.62461e-05
2.66508e-05
2.70428e-05
2.73004e-05
2.74499e-05
2.74117e-05
2.73176e-05
2.71129e-05
2.66684e-05
2.58542e-05
2.41839e-05
1.95041e-05
)
;

boundaryField
{
    movingWall
    {
        type            nutkWallFunction;
        Cmu             0.09;
        kappa           0.41;
        E               9.8;
        value           uniform 0;
    }
    fixedWalls
    {
        type            nutkWallFunction;
        Cmu             0.09;
        kappa           0.41;
        E               9.8;
        value           uniform 0;
    }
    frontAndBack
    {
        type            empty;
    }
}


// ************************************************************************* //
