/*--------------------------------*- C++ -*----------------------------------*\
  =========                 |
  \\      /  F ield         | OpenFOAM: The Open Source CFD Toolbox
   \\    /   O peration     | Website:  https://openfoam.org
    \\  /    A nd           | Version:  12
     \\/     M anipulation  |
\*---------------------------------------------------------------------------*/
FoamFile
{
    format      ascii;
    class       volScalarField;
    location    "0.6";
    object      p;
}
// * * * * * * * * * * * * * * * * * * * * * * * * * * * * * * * * * * * * * //

dimensions      [0 2 -2 0 0 0 0];

internalField   nonuniform List<scalar> 
1600
(
2.20461e-08
-3.50139e-06
-6.49149e-06
-7.26295e-06
-4.4923e-06
2.55562e-06
1.43023e-05
3.09767e-05
5.26984e-05
7.95299e-05
0.000111507
0.000148659
0.000191011
0.000238594
0.000291436
0.000349558
0.000412965
0.000481631
0.000555488
0.000634406
0.000718175
0.00080648
0.000898816
0.000994773
0.00109372
0.00119448
0.00129608
0.00139724
0.00149649
0.00159219
0.00168257
0.00176577
0.00183999
0.00190348
0.0019548
0.001993
0.00201795
0.00203062
0.00203369
0.00203071
3.50461e-06
-1.09444e-08
-1.91025e-06
-1.25475e-06
2.88297e-06
1.09983e-05
2.34694e-05
4.0555e-05
6.24214e-05
8.91771e-05
0.000120899
0.000157646
0.00019947
0.000246418
0.000298528
0.000355828
0.000418325
0.000485995
0.000558766
0.000636509
0.000719014
0.000805967
0.000896951
0.000991496
0.00108876
0.00118795
0.001288
0.00138768
0.00148557
0.00158009
0.00166957
0.00175225
0.0018264
0.00189042
0.00194298
0.0019832
0.00201077
0.00202603
0.00203073
0.00202781
6.63591e-06
1.84533e-06
-2.15923e-07
1.5708e-06
7.29349e-06
1.68025e-05
3.02926e-05
4.80168e-05
7.01785e-05
9.69333e-05
0.000128404
0.000164692
0.000205884
0.000252052
0.000303259
0.000359548
0.000420941
0.000487424
0.000558939
0.000635368
0.000716515
0.000802089
0.000891702
0.000984852
0.00108081
0.00117876
0.00127771
0.00137645
0.00147367
0.00156785
0.00165742
0.0017407
0.00181607
0.00188203
0.00193728
0.00198087
0.00201205
0.00202991
0.00203488
0.00203063
7.37718e-06
8.26614e-07
-2.88225e-06
-1.41877e-06
4.86872e-06
1.51597e-05
2.9343e-05
4.75602e-05
6.99773e-05
9.67494e-05
0.000128018
0.000163909
0.00020454
0.000250013
0.000300419
0.00035583
0.000416295
0.000481828
0.0005524
0.000627922
0.000708233
0.00079308
0.000882108
0.000974834
0.00107062
0.00116867
0.00126802
0.00136755
0.00146596
0.00156178
0.00165344
0.00173929
0.00181766
0.00188698
0.0019458
0.00199285
0.00202672
0.00204529
0.00204845
0.00204186
4.10192e-06
-4.28942e-06
-1.03162e-05
-1.02443e-05
-4.4296e-06
5.83617e-06
2.01444e-05
3.84804e-05
6.09277e-05
8.76017e-05
0.000118632
0.000154151
0.000194293
0.000239185
0.000288947
0.000343688
0.000403491
0.000468413
0.000538465
0.000613608
0.000693727
0.000778625
0.000867997
0.000961416
0.00105829
0.0011579
0.0012593
0.00136141
0.00146292
0.00156236
0.00165808
0.00174834
0.00183131
0.00190518
0.00196818
0.00201862
0.00205438
0.00207247
0.00207296
0.00206378
-4.12615e-06
-1.41584e-05
-2.24762e-05
-2.41815e-05
-1.94268e-05
-9.76546e-06
4.17628e-06
2.22448e-05
4.44341e-05
7.08061e-05
0.000101464
0.000136535
0.00017616
0.000220488
0.00026967
0.000323848
0.000383153
0.000447688
0.000517522
0.000592673
0.000673092
0.000758649
0.00084911
0.000944116
0.00104315
0.00114553
0.00125038
0.0013566
0.00146288
0.00156768
0.00166922
0.00176557
0.00185464
0.00193426
0.00200227
0.00205644
0.00209405
0.00211151
0.0021094
0.00209772
-1.77893e-05
-2.91939e-05
-3.95505e-05
-4.30885e-05
-3.96792e-05
-3.09901e-05
-1.77857e-05
-3.2174e-07
2.1321e-05
4.71536e-05
7.72503e-05
0.000111728
0.000150733
0.000194433
0.000243007
0.000296639
0.000355506
0.000419772
0.000489569
0.000564989
0.000646062
0.000732742
0.000824882
0.000922214
0.0010243
0.00113053
0.00124006
0.00135182
0.00146445
0.0015763
0.00168543
0.00178964
0.00188646
0.0019733
0.00204747
0.00210619
0.00214613
0.00216325
0.00215881
0.00214471
-3.70628e-05
-4.95917e-05
-6.17148e-05
-6.70222e-05
-6.509e-05
-5.761e-05
-4.54225e-05
-2.8849e-05
-8.02467e-06
1.70212e-05
4.63377e-05
8.00323e-05
0.000118256
0.000161195
0.000209059
0.000262074
0.000320473
0.000384483
0.000454314
0.000530143
0.000612095
0.000700227
0.000794503
0.000894759
0.00100067
0.0011117
0.00122708
0.00134575
0.0014663
0.00158698
0.00170561
0.00181965
0.0019262
0.00202207
0.00210396
0.00216845
0.00221154
0.00222882
0.00222225
0.00220567
-6.19224e-05
-7.53833e-05
-8.90347e-05
-9.60136e-05
-9.56123e-05
-8.94971e-05
-7.85411e-05
-6.31023e-05
-4.33502e-05
-1.93425e-05
8.95183e-06
4.16342e-05
7.88627e-05
0.000120842
0.000167816
0.000220056
0.000277855
0.000341512
0.000411323
0.000487564
0.000570474
0.000660234
0.00075694
0.000860563
0.000970903
0.00108757
0.00120987
0.00133678
0.00146688
0.00159827
0.00172852
0.00185469
0.00197332
0.00208051
0.00217217
0.00224407
0.00229146
0.00230944
0.00230083
0.00228156
-9.22245e-05
-0.000106488
-0.000121482
-0.000130037
-0.000131185
-0.000126543
-0.00011699
-0.000102901
-8.44616e-05
-6.17475e-05
-3.47381e-05
-3.33374e-06
3.26332e-05
7.33892e-05
0.000119212
0.000170424
0.00022738
0.00029046
0.000360056
0.000436556
0.000520331
0.000611708
0.000710946
0.000818183
0.000933385
0.00105636
0.00118653
0.00132297
0.00146425
0.00160836
0.00175262
0.0018936
0.00202716
0.00214854
0.00225259
0.00233406
0.0023872
0.00240651
0.00239577
0.00237338
-0.000127766
-0.000142746
-0.000158957
-0.000169012
-0.000171718
-0.000168635
-0.000160635
-0.000148091
-0.000131199
-0.00011004
-8.45996e-05
-5.47752e-05
-2.03874e-05
1.88135e-05
6.3142e-05
0.000112971
0.000168723
0.000230863
0.000299888
0.000376315
0.00046066
0.000553425
0.000655061
0.000765925
0.000886225
0.00101591
0.00115471
0.00130183
0.00145592
0.00161489
0.00177581
0.00193475
0.00208673
0.00222588
0.00234573
0.00243957
0.00250029
0.00252161
0.00250839
0.00248214
-0.000168305
-0.00018395
-0.000201302
-0.00021281
-0.000217088
-0.000215644
-0.000209334
-0.000198525
-0.000183412
-0.000164081
-0.000140515
-0.000112609
-8.01687e-05
-4.29222e-05
-5.18182e-07
4.74675e-05
0.000101527
0.000162215
0.000230139
0.000305954
0.000390342
0.000484001
0.000587611
0.000701788
0.000827021
0.00096358
0.00111151
0.00127026
0.00143868
0.00161472
0.00179523
0.00197576
0.00215041
0.00231187
0.00245189
0.00256177
0.00263247
0.0026565
0.00264015
0.0026088
-0.000213573
-0.000229858
-0.000248316
-0.000261258
-0.000267137
-0.000267414
-0.000262929
-0.000254043
-0.000240947
-0.000223726
-0.000202363
-0.000176747
-0.000146673
-0.000111847
-7.18835e-05
-2.63082e-05
2.54386e-05
8.40003e-05
0.0001501
0.000224537
0.000308173
0.000401926
0.000506736
0.000623532
0.000753152
0.00089623
0.00105339
0.00122436
0.00140837
0.00160359
0.00180682
0.00201313
0.00221556
0.00240508
0.00257101
0.00270183
0.00278567
0.00281315
0.00279247
0.00275407
-0.000263282
-0.000280208
-0.000299767
-0.000314151
-0.000321672
-0.000323758
-0.000321239
-0.000314466
-0.000303628
-0.000288811
-0.00027
-0.00024708
-0.000219838
-0.000187962
-0.000151037
-0.000108545
-5.98657e-05
-4.26975e-06
5.90782e-05
0.000131122
0.000212911
0.000305599
0.000410418
0.000528656
0.000661615
0.000810529
0.000976122
0.00115926
0.00135959
0.00157578
0.00180487
0.00204161
0.00227795
0.00250278
0.00270219
0.00286059
0.00296182
0.00299352
0.00296646
0.00291787
-0.000317133
-0.000334714
-0.000355397
-0.000371252
-0.000380472
-0.000384464
-0.000384051
-0.000379583
-0.000371251
-0.000359143
-0.000343249
-0.000323458
-0.000299553
-0.000271212
-0.000238
-0.000199367
-0.000154639
-0.000103015
-4.3557e-05
2.48153e-05
0.000103335
0.000193394
0.000296535
0.000414438
0.000548896
0.000701706
0.000874406
0.0010689
0.00128543
0.00152364
0.0017813
0.00205333
0.00233079
0.00260003
0.00284293
0.00303803
0.00316251
0.0031991
0.00316223
0.00309861
-0.000374816
-0.000393081
-0.000414927
-0.0004323
-0.000443287
-0.000449286
-0.000451125
-0.000449156
-0.000443576
-0.000434486
-0.000421886
-0.000405674
-0.000385642
-0.000361467
-0.000332709
-0.000298796
-0.000259023
-0.000212534
-0.00015831
-9.51546e-05
-2.16715e-05
6.37544e-05
0.000162974
0.000278079
0.000411398
0.00056549
0.000743054
0.000946088
0.00117712
0.00143702
0.00172492
0.00203667
0.0023632
0.00268815
0.00298773
0.00323235
0.00338829
0.00343016
0.0033776
0.00329174
-0.00043601
-0.000455001
-0.000478064
-0.000497015
-0.000509845
-0.000517955
-0.000522187
-0.000522905
-0.000520321
-0.000514554
-0.000505625
-0.000493451
-0.000477844
-0.000458496
-0.000434977
-0.000406717
-0.000373
-0.000332946
-0.000285488
-0.00022935
-0.000163013
-8.4679e-05
7.77171e-06
0.000116816
0.000245323
0.00039657
0.00057421
0.000781985
0.00102373
0.00130261
0.00162036
0.00197475
0.00235807
0.00275231
0.00312663
0.00343899
0.00363867
0.00368582
0.00360633
0.00348804
-0.000500392
-0.000520155
-0.000544501
-0.000565099
-0.00057985
-0.000590173
-0.000596933
-0.000600515
-0.000601156
-0.000599004
-0.00059411
-0.000586426
-0.000575795
-0.000561943
-0.00054447
-0.000522835
-0.000496343
-0.000464127
-0.000425118
-0.000378017
-0.000321248
-0.000252902
-0.000170675
-7.1787e-05
4.70978e-05
0.000189957
0.000361473
0.000566998
0.000812307
0.00110328
0.00144692
0.00184344
0.00228911
0.00276809
0.00324171
0.00364947
0.00391071
0.00395907
0.00383228
0.00367097
-0.000567631
-0.000588222
-0.000613926
-0.000636244
-0.000652993
-0.00066562
-0.000675025
-0.000681627
-0.000685698
-0.000687425
-0.000686905
-0.000684134
-0.000679008
-0.000671303
-0.000660675
-0.000646641
-0.000628567
-0.000605643
-0.000576862
-0.000540973
-0.000496435
-0.000441345
-0.000373348
-0.000289523
-0.000186238
-5.89795e-05
9.7833e-05
0.000291098
0.000528695
0.00081744
0.00117786
0.00160877
0.00211665
0.0026935
0.00329716
0.00383507
0.0041637
0.00419695
0.00400408
0.00381141
-0.000637397
-0.00065888
-0.000686023
-0.000710136
-0.00072895
-0.000743954
-0.000756098
-0.000765843
-0.00077351
-0.00077934
-0.000783485
-0.000786005
-0.000786861
-0.000785906
-0.000782876
-0.000777378
-0.00076888
-0.00075669
-0.000739927
-0.000717484
-0.000687972
-0.000649646
-0.000600299
-0.000537115
-0.000456474
-0.00035368
-0.000222587
-5.49966e-05
0.000160129
0.000437684
0.000781781
0.00122332
0.00177769
0.00245088
0.00319659
0.00386794
0.00425241
0.00427779
0.00403524
0.00387928
-0.000709364
-0.000731812
-0.000760485
-0.000786465
-0.000807394
-0.000824821
-0.000839759
-0.000852726
-0.000864103
-0.000874198
-0.000883235
-0.000891351
-0.000898593
-0.000904906
-0.000910135
-0.000914014
-0.000916156
-0.000916043
-0.000913
-0.000906165
-0.000894441
-0.000876427
-0.000850313
-0.000813732
-0.000763532
-0.000695451
-0.000603602
-0.00047957
-0.000311853
-8.55449e-05
0.000217177
0.000620614
0.00116953
0.00187833
0.0026746
0.00336603
0.00384029
0.00399781
0.00388714
0.00396537
-0.000783219
-0.000806721
-0.000837021
-0.000864931
-0.000888002
-0.00090786
-0.000925596
-0.000941801
-0.000956934
-0.00097138
-0.000985449
-0.000999371
-0.00101329
-0.00102727
-0.00104129
-0.00105524
-0.00106891
-0.00108203
-0.0010942
-0.0011049
-0.00111349
-0.00111909
-0.0011206
-0.00111648
-0.00110464
-0.00108209
-0.00104438
-0.000984556
-0.000893136
-0.000757149
-0.000558176
-0.000270279
0.000127066
0.000633893
0.00121262
0.00185885
0.00257945
0.00315058
0.00357025
0.00418708
-0.000858675
-0.000883336
-0.00091537
-0.000945262
-0.000970467
-0.00099271
-0.00101318
-0.00103257
-0.00105141
-0.0010702
-0.00108933
-0.00110915
-0.00112991
-0.00115181
-0.00117497
-0.00119947
-0.00122533
-0.00125254
-0.00128107
-0.00131085
-0.00134177
-0.00137374
-0.00140658
-0.00144005
-0.00147373
-0.00150683
-0.00153783
-0.00156373
-0.00158087
-0.00158378
-0.00156927
-0.00154708
-0.00152707
-0.00145831
-0.00122739
-0.000640988
0.000363141
0.00156431
0.00279208
0.00404908
-0.000935488
-0.000961436
-0.000995323
-0.00102723
-0.00105451
-0.00107903
-0.00110209
-0.0011245
-0.00114691
-0.00116991
-0.00119402
-0.00121968
-0.00124729
-0.00127716
-0.0013096
-0.00134488
-0.00138327
-0.00142508
-0.00147066
-0.00152046
-0.00157505
-0.0016352
-0.00170195
-0.00177664
-0.00186108
-0.00195756
-0.0020688
-0.00219845
-0.00235168
-0.00253696
-0.00278186
-0.00314711
-0.00363817
-0.00409006
-0.00421813
-0.00372902
-0.00257676
-0.000857679
0.000962591
0.00249203
-0.00101348
-0.00104087
-0.00107674
-0.00111067
-0.00113991
-0.00116649
-0.00119189
-0.00121705
-0.00124276
-0.00126971
-0.00129856
-0.00132987
-0.00136414
-0.00140185
-0.00144346
-0.00148946
-0.00154038
-0.00159683
-0.0016596
-0.00172967
-0.00180834
-0.00189732
-0.00199894
-0.00211633
-0.0022538
-0.0024172
-0.00261438
-0.00285702
-0.00316139
-0.00355496
-0.00410157
-0.00489612
-0.00591013
-0.00684048
-0.00722431
-0.00680781
-0.00559386
-0.00368832
-0.00169133
-0.000259674
-0.00109257
-0.0011216
-0.0011596
-0.0011955
-0.00122648
-0.0012548
-0.00128217
-0.00130967
-0.00133826
-0.00136877
-0.00140197
-0.00143854
-0.00147912
-0.00152432
-0.00157475
-0.00163111
-0.00169415
-0.00176483
-0.00184432
-0.00193415
-0.00203628
-0.00215338
-0.00228899
-0.00244799
-0.00263705
-0.00286545
-0.00314625
-0.00349839
-0.00394982
-0.00454694
-0.00536628
-0.00651638
-0.00791349
-0.00913912
-0.0096599
-0.00930329
-0.00817072
-0.00637549
-0.00439071
-0.00313741
-0.00117282
-0.00120374
-0.001244
-0.00128176
-0.00131413
-0.00134373
-0.00137251
-0.00140179
-0.00143269
-0.0014662
-0.00150321
-0.00154452
-0.00159086
-0.00164298
-0.00170164
-0.00176768
-0.00184209
-0.00192612
-0.00202128
-0.00212957
-0.00225357
-0.00239673
-0.00256365
-0.0027606
-0.00299618
-0.00328229
-0.00363596
-0.00408097
-0.00465292
-0.00541208
-0.00642491
-0.00778109
-0.00936769
-0.0107192
-0.0113082
-0.0110448
-0.0100822
-0.00854534
-0.00675911
-0.00558977
-0.00125451
-0.00128759
-0.00133025
-0.00136964
-0.00140287
-0.00143305
-0.00146249
-0.00149279
-0.00152526
-0.00156106
-0.00160119
-0.00164655
-0.00169797
-0.00175627
-0.00182233
-0.00189712
-0.00198184
-0.00207791
-0.00218717
-0.00231198
-0.00245539
-0.00262146
-0.00281552
-0.00304479
-0.00331903
-0.00365165
-0.00406137
-0.00457393
-0.00522701
-0.00607194
-0.00717844
-0.00858996
-0.0101847
-0.011531
-0.0121424
-0.0119843
-0.0112121
-0.00995849
-0.008561
-0.0074384
-0.0013382
-0.00137378
-0.00141891
-0.00145948
-0.00149278
-0.00152257
-0.00155168
-0.00158202
-0.00161514
-0.00165236
-0.0016948
-0.00174341
-0.00179908
-0.00186268
-0.00193515
-0.00201757
-0.00211124
-0.00221775
-0.00233915
-0.00247804
-0.00263782
-0.00282289
-0.00303901
-0.0032938
-0.00359736
-0.00396322
-0.00440953
-0.00496034
-0.00564777
-0.00651809
-0.00761616
-0.0089521
-0.0104231
-0.0116687
-0.0122699
-0.012209
-0.0116093
-0.0105885
-0.0095485
-0.00849856
-0.0014249
-0.00146333
-0.00151085
-0.00155184
-0.001584
-0.00161207
-0.00163951
-0.00166866
-0.00170134
-0.00173901
-0.00178285
-0.00183384
-0.00189287
-0.00196081
-0.00203861
-0.00212741
-0.00222855
-0.00234367
-0.00247498
-0.00262523
-0.00279798
-0.00299777
-0.00323048
-0.00350367
-0.00382704
-0.00421305
-0.00467754
-0.00524084
-0.00592855
-0.00677162
-0.00779185
-0.00898026
-0.0102537
-0.0113244
-0.0118929
-0.011901
-0.0114398
-0.0105846
-0.00981529
-0.00878351
-0.0015163
-0.00155787
-0.00160738
-0.00164748
-0.00167668
-0.00170115
-0.00172522
-0.00175171
-0.00178269
-0.00181973
-0.00186404
-0.00191654
-0.00197803
-0.00204935
-0.00213137
-0.00222528
-0.00233233
-0.00245413
-0.00259302
-0.00275176
-0.00293396
-0.00314416
-0.00338812
-0.00367301
-0.00400772
-0.00440305
-0.00487169
-0.0054288
-0.0060916
-0.00687666
-0.00778976
-0.00880671
-0.0098512
-0.010735
-0.0112297
-0.0112569
-0.0108722
-0.0100458
-0.00945429
-0.00836178
-0.00161513
-0.00165989
-0.00171034
-0.00174726
-0.00177078
-0.0017891
-0.00180764
-0.00182969
-0.0018576
-0.00189294
-0.00193685
-0.00199007
-0.00205324
-0.00212708
-0.00221236
-0.00231
-0.00242132
-0.00254799
-0.00269207
-0.00285641
-0.00304455
-0.00326095
-0.00351112
-0.00380178
-0.00414091
-0.00453756
-0.00500137
-0.00554226
-0.00616888
-0.00688665
-0.00768846
-0.00854239
-0.0093816
-0.0100787
-0.0104578
-0.0104328
-0.0100231
-0.0090725
-0.00863992
-0.00723984
-0.00172578
-0.00177318
-0.00182216
-0.00185201
-0.00186579
-0.00187449
-0.00188476
-0.00190032
-0.00192373
-0.0019565
-0.00199942
-0.00205277
-0.00211698
-0.00219259
-0.00228019
-0.00238046
-0.00249459
-0.00262415
-0.00277111
-0.00293818
-0.00312882
-0.00334733
-0.003599
-0.00389008
-0.00422786
-0.00461994
-0.00507349
-0.00559441
-0.00618484
-0.00684032
-0.00754477
-0.00826166
-0.00892856
-0.00944328
-0.00967138
-0.00952106
-0.00896623
-0.0077791
-0.0074628
-0.0054262
-0.00185602
-0.00190363
-0.001946
-0.00196193
-0.00195986
-0.00195415
-0.00195268
-0.00195972
-0.00197783
-0.00200791
-0.00204943
-0.00210234
-0.0021671
-0.00224394
-0.00233311
-0.00243506
-0.00255069
-0.0026814
-0.00282905
-0.00299621
-0.00318621
-0.0034032
-0.00365223
-0.00393903
-0.0042707
-0.00465368
-0.00509357
-0.00559325
-0.00615046
-0.00675406
-0.00738002
-0.00798564
-0.00850491
-0.00884212
-0.00888728
-0.00853715
-0.00773365
-0.00624941
-0.00575751
-0.00284717
-0.00201803
-0.00205929
-0.00208409
-0.00207437
-0.00204691
-0.0020208
-0.00200493
-0.00200382
-0.00201653
-0.00204269
-0.00208209
-0.00213452
-0.00219982
-0.00227778
-0.00236819
-0.00247117
-0.00258735
-0.00271795
-0.00286475
-0.00303015
-0.00321741
-0.00343047
-0.00367413
-0.00395407
-0.00427669
-0.00464807
-0.00507267
-0.00555121
-0.00607794
-0.00663685
-0.00719664
-0.00770572
-0.00809023
-0.00824733
-0.0080663
-0.00742071
-0.00623557
-0.00426508
-0.00322781
0.000636841
-0.00224004
-0.00225517
-0.0022365
-0.00218
-0.00211426
-0.00206355
-0.00203406
-0.00202331
-0.00203001
-0.00205274
-0.00209074
-0.00214337
-0.0022098
-0.00228939
-0.00238138
-0.00248538
-0.00260174
-0.00273166
-0.00287697
-0.00304003
-0.00322395
-0.00343259
-0.00367067
-0.00394363
-0.00425752
-0.0046179
-0.0050282
-0.00548723
-0.00598588
-0.00650279
-0.00699915
-0.00741143
-0.00765275
-0.00759815
-0.00711518
-0.00602571
-0.00424184
-0.00142662
0.000616543
0.00597688
-0.00256532
-0.00249481
-0.00239114
-0.00225574
-0.00214395
-0.00207035
-0.00202756
-0.00201005
-0.00201429
-0.00203693
-0.00207587
-0.0021298
-0.00219765
-0.00227837
-0.00237117
-0.0024756
-0.00259138
-0.00271945
-0.00286238
-0.003023
-0.00320438
-0.00341017
-0.0036449
-0.00391357
-0.00422174
-0.00457407
-0.00497268
-0.00541416
-0.00588588
-0.00636004
-0.00678836
-0.00709125
-0.00716251
-0.00683487
-0.00593663
-0.00417872
-0.00144819
0.00282114
0.00681866
0.0154344
-0.00312441
-0.00280299
-0.00253187
-0.00228669
-0.00213587
-0.00204754
-0.00199854
-0.00197958
-0.00198452
-0.00200854
-0.00204843
-0.0021024
-0.00216895
-0.00224766
-0.00233849
-0.00243977
-0.00255188
-0.00267737
-0.00281846
-0.00297788
-0.0031586
-0.00336412
-0.00359861
-0.0038667
-0.00417315
-0.00452093
-0.00491046
-0.00533565
-0.00578015
-0.00620955
-0.00656582
-0.00674806
-0.00662514
-0.00596378
-0.00455323
-0.00189044
0.00221558
0.00883062
0.0165438
0.0316137
-0.00402815
-0.00299145
-0.00255286
-0.00224149
-0.00206986
-0.0019755
-0.00192688
-0.00191047
-0.00191747
-0.00194203
-0.00198067
-0.00203176
-0.00209399
-0.00216686
-0.00225078
-0.00234707
-0.00245717
-0.00258231
-0.00272374
-0.00288349
-0.00306457
-0.00327055
-0.00350578
-0.00377425
-0.00408016
-0.00442448
-0.00480675
-0.00521728
-0.00563751
-0.00602594
-0.00631929
-0.00640321
-0.00611766
-0.00519585
-0.00329401
0.000342181
0.00624465
0.0161435
0.0298635
0.0545206
-0.00509296
-0.000802038
-0.000344762
-0.000487893
-0.000549922
-0.000566069
-0.000605846
-0.000679639
-0.000772528
-0.000871846
-0.000973769
-0.00107921
-0.00119071
-0.00131072
-0.00143913
-0.00157517
-0.00172006
-0.00187631
-0.00204671
-0.00223386
-0.00244062
-0.00267087
-0.00292839
-0.00321797
-0.00354194
-0.00390335
-0.00429807
-0.004718
-0.00513646
-0.00551263
-0.00576822
-0.00579924
-0.00545211
-0.00451362
-0.00241436
0.00185349
0.00992677
0.0234523
0.0444363
0.0742068
)
;

boundaryField
{
    movingWall
    {
        type            zeroGradient;
    }
    fixedWalls
    {
        type            zeroGradient;
    }
    frontAndBack
    {
        type            empty;
    }
}


// ************************************************************************* //
