/*--------------------------------*- C++ -*----------------------------------*\
  =========                 |
  \\      /  F ield         | OpenFOAM: The Open Source CFD Toolbox
   \\    /   O peration     | Website:  https://openfoam.org
    \\  /    A nd           | Version:  12
     \\/     M anipulation  |
\*---------------------------------------------------------------------------*/
FoamFile
{
    format      ascii;
    class       surfaceScalarField;
    location    "0.6";
    object      phi;
}
// * * * * * * * * * * * * * * * * * * * * * * * * * * * * * * * * * * * * * //

dimensions      [0 3 -1 0 0 0 0];

internalField   nonuniform List<scalar> 
3120
(
1.41544e-09
-1.41652e-09
-2.40099e-09
3.8164e-09
-1.1124e-08
8.72294e-09
-2.29904e-08
1.18664e-08
-3.65322e-08
1.35417e-08
-5.08232e-08
1.4291e-08
-6.53182e-08
1.4495e-08
-7.96961e-08
1.43779e-08
-9.37707e-08
1.40745e-08
-1.07437e-07
1.36663e-08
-1.20637e-07
1.31998e-08
-1.33335e-07
1.26984e-08
-1.45504e-07
1.21687e-08
-1.57111e-07
1.16068e-08
-1.68112e-07
1.10015e-08
-1.7845e-07
1.03373e-08
-1.88047e-07
9.59703e-09
-1.96809e-07
8.76198e-09
-2.04622e-07
7.81357e-09
-2.11356e-07
6.73315e-09
-2.16857e-07
5.50169e-09
-2.20955e-07
4.09823e-09
-2.23464e-07
2.50817e-09
-2.24249e-07
7.85562e-10
-2.23057e-07
-1.19263e-09
-2.19704e-07
-3.35248e-09
-2.14e-07
-5.7046e-09
-2.05777e-07
-8.22212e-09
-1.94913e-07
-1.08648e-08
-1.81341e-07
-1.35717e-08
-1.65082e-07
-1.62587e-08
-1.4627e-07
-1.8812e-08
-1.25188e-07
-2.10829e-08
-1.02289e-07
-2.28989e-08
-7.82725e-08
-2.40161e-08
-5.42126e-08
-2.406e-08
-3.17786e-08
-2.2434e-08
-1.34951e-08
-1.82834e-08
-2.49573e-09
-1.09994e-08
-2.49574e-09
-3.77903e-09
2.36249e-09
-1.38929e-08
1.39303e-08
-2.8063e-08
2.2893e-08
-4.46575e-08
2.84608e-08
-6.26706e-08
3.15549e-08
-8.14297e-08
3.30501e-08
-1.00471e-07
3.35364e-08
-1.19471e-07
3.3378e-08
-1.382e-07
3.28036e-08
-1.56492e-07
3.19581e-08
-1.74222e-07
3.09298e-08
-1.91291e-07
2.97668e-08
-2.0761e-07
2.84884e-08
-2.23097e-07
2.7093e-08
-2.37659e-07
2.55643e-08
-2.51199e-07
2.38768e-08
-2.63601e-07
2.19987e-08
-2.74734e-07
1.98952e-08
-2.84451e-07
1.75305e-08
-2.92586e-07
1.48687e-08
-2.9896e-07
1.18757e-08
-3.03382e-07
8.51979e-09
-3.05657e-07
4.78335e-09
-3.05531e-07
6.59566e-10
-3.02849e-07
-3.87495e-09
-2.97394e-07
-8.8071e-09
-2.89006e-07
-1.40924e-08
-2.77558e-07
-1.967e-08
-2.6298e-07
-2.54432e-08
-2.45272e-07
-3.12797e-08
-2.24525e-07
-3.7006e-08
-2.00935e-07
-4.24012e-08
-1.74827e-07
-4.71916e-08
-1.46697e-07
-5.10292e-08
-1.1724e-07
-5.34727e-08
-8.73944e-08
-5.39056e-08
-5.8426e-08
-5.14025e-08
-3.20836e-08
-4.46258e-08
-1.09881e-08
-3.20949e-08
-1.34839e-08
-8.75105e-09
1.11136e-08
-2.287e-08
2.80492e-08
-3.9051e-08
3.9074e-08
-5.66053e-08
4.60151e-08
-7.51571e-08
5.01066e-08
-9.43566e-08
5.22495e-08
-1.13889e-07
5.30685e-08
-1.33488e-07
5.29771e-08
-1.52934e-07
5.225e-08
-1.72045e-07
5.10692e-08
-1.90667e-07
4.95515e-08
-2.08666e-07
4.77654e-08
-2.2592e-07
4.5743e-08
-2.42316e-07
4.34887e-08
-2.57737e-07
4.09858e-08
-2.72064e-07
3.8203e-08
-2.85164e-07
3.50991e-08
-2.96896e-07
3.16268e-08
-3.07101e-07
2.7736e-08
-3.15609e-07
2.33766e-08
-3.22235e-07
1.85014e-08
-3.26785e-07
1.30694e-08
-3.29054e-07
7.05295e-09
-3.28831e-07
4.3653e-10
-3.25923e-07
-6.78352e-09
-3.20152e-07
-1.45778e-08
-3.11367e-07
-2.28773e-08
-2.99463e-07
-3.15742e-08
-2.84392e-07
-4.05143e-08
-2.6618e-07
-4.94918e-08
-2.44942e-07
-5.82442e-08
-2.20896e-07
-6.64473e-08
-1.94377e-07
-7.37098e-08
-1.65849e-07
-7.95577e-08
-1.35909e-07
-8.34129e-08
-1.05283e-07
-8.45311e-08
-7.47964e-08
-8.18894e-08
-4.53418e-08
-7.40804e-08
-1.83531e-08
-5.90837e-08
-3.1837e-08
-1.20196e-08
2.31332e-08
-2.85589e-08
4.45884e-08
-4.60763e-08
5.65914e-08
-6.42295e-08
6.41682e-08
-8.29647e-08
6.88418e-08
-1.02161e-07
7.1446e-08
-1.21647e-07
7.25547e-08
-1.41236e-07
7.25659e-08
-1.60744e-07
7.17582e-08
-1.80001e-07
7.03256e-08
-1.98848e-07
6.83984e-08
-2.1714e-07
6.60574e-08
-2.34741e-07
6.33442e-08
-2.51521e-07
6.02683e-08
-2.67349e-07
5.68143e-08
-2.82094e-07
5.29478e-08
-2.95615e-07
4.86204e-08
-3.07763e-07
4.37746e-08
-3.18375e-07
3.83482e-08
-3.27277e-07
3.22782e-08
-3.34281e-07
2.55051e-08
-3.39189e-07
1.79778e-08
-3.41796e-07
9.66003e-09
-3.41898e-07
5.37974e-10
-3.39292e-07
-9.38941e-09
-3.33804e-07
-2.00658e-08
-3.25284e-07
-3.13976e-08
-3.13624e-07
-4.32341e-08
-2.98772e-07
-5.53656e-08
-2.80748e-07
-6.75163e-08
-2.59652e-07
-7.93399e-08
-2.35682e-07
-9.04182e-08
-2.09134e-07
-1.00257e-07
-1.80409e-07
-1.08282e-07
-1.49999e-07
-1.13823e-07
-1.18455e-07
-1.16075e-07
-8.63304e-08
-1.14014e-07
-5.41693e-08
-1.06242e-07
-2.31148e-08
-9.01382e-08
-5.49518e-08
-1.38589e-08
3.69921e-08
-3.19064e-08
6.26359e-08
-5.04729e-08
7.51579e-08
-6.92471e-08
8.29424e-08
-8.82784e-08
8.78732e-08
-1.07569e-07
9.07368e-08
-1.27051e-07
9.20361e-08
-1.46609e-07
9.21244e-08
-1.66109e-07
9.12579e-08
-1.85406e-07
8.96224e-08
-2.04355e-07
8.73477e-08
-2.22816e-07
8.45179e-08
-2.40649e-07
8.11779e-08
-2.57721e-07
7.73402e-08
-2.73896e-07
7.29895e-08
-2.89037e-07
6.80883e-08
-3.02998e-07
6.25819e-08
-3.15627e-07
5.64037e-08
-3.26759e-07
4.94797e-08
-3.36215e-07
4.17342e-08
-3.43805e-07
3.30948e-08
-3.49326e-07
2.3499e-08
-3.52568e-07
1.29017e-08
-3.53318e-07
1.28825e-09
-3.51366e-07
-1.13415e-08
-3.4652e-07
-2.49115e-08
-3.38612e-07
-3.93055e-08
-3.27511e-07
-5.43358e-08
-3.13133e-07
-6.97431e-08
-2.95462e-07
-8.51872e-08
-2.74557e-07
-1.00245e-07
-2.50563e-07
-1.14412e-07
-2.2372e-07
-1.271e-07
-1.94358e-07
-1.37644e-07
-1.62885e-07
-1.45296e-07
-1.29755e-07
-1.49206e-07
-9.54325e-08
-1.48336e-07
-6.04547e-08
-1.41219e-07
-2.61613e-08
-1.24432e-07
-8.11131e-08
-1.48038e-08
5.17959e-08
-3.37944e-08
8.16265e-08
-5.31826e-08
9.4546e-08
-7.25742e-08
1.02334e-07
-9.20112e-08
1.0731e-07
-1.11541e-07
1.10267e-07
-1.31154e-07
1.11649e-07
-1.50792e-07
1.11762e-07
-1.70362e-07
1.10828e-07
-1.89752e-07
1.09012e-07
-2.08839e-07
1.06435e-07
-2.27494e-07
1.03173e-07
-2.45588e-07
9.92719e-08
-2.6299e-07
9.47414e-08
-2.79565e-07
8.95646e-08
-2.95176e-07
8.36998e-08
-3.0968e-07
7.70855e-08
-3.22921e-07
6.96453e-08
-3.34735e-07
6.12932e-08
-3.4494e-07
5.19392e-08
-3.53341e-07
4.14963e-08
-3.5973e-07
2.9888e-08
-3.63886e-07
1.70573e-08
-3.65578e-07
2.98034e-09
-3.6458e-07
-1.23395e-08
-3.60668e-07
-2.88234e-08
-3.53638e-07
-4.63361e-08
-3.43311e-07
-6.46625e-08
-3.29552e-07
-8.35015e-08
-3.12283e-07
-1.02457e-07
-2.91495e-07
-1.21034e-07
-2.67265e-07
-1.38643e-07
-2.39763e-07
-1.54602e-07
-2.09261e-07
-1.68147e-07
-1.76118e-07
-1.78439e-07
-1.40775e-07
-1.84549e-07
-1.03745e-07
-1.85366e-07
-6.57338e-08
-1.7923e-07
-2.84453e-08
-1.6172e-07
-1.09558e-07
-1.5239e-08
6.70349e-08
-3.48196e-08
1.01207e-07
-5.48464e-08
1.14573e-07
-7.48158e-08
1.22303e-07
-9.47171e-08
1.27211e-07
-1.14596e-07
1.30146e-07
-1.34469e-07
1.31522e-07
-1.54313e-07
1.31605e-07
-1.74068e-07
1.30583e-07
-1.93653e-07
1.28597e-07
-2.12967e-07
1.25749e-07
-2.31901e-07
1.22107e-07
-2.50337e-07
1.17708e-07
-2.68154e-07
1.12559e-07
-2.85227e-07
1.06637e-07
-3.01423e-07
9.98959e-08
-3.16603e-07
9.22647e-08
-3.30614e-07
8.36563e-08
-3.43291e-07
7.39708e-08
-3.54454e-07
6.3102e-08
-3.63903e-07
5.0945e-08
-3.7142e-07
3.74049e-08
-3.76769e-07
2.24071e-08
-3.797e-07
5.9106e-09
-3.79954e-07
-1.20855e-08
-3.77265e-07
-3.15118e-08
-3.71376e-07
-5.22257e-08
-3.62042e-07
-7.39963e-08
-3.49052e-07
-9.64919e-08
-3.3224e-07
-1.19268e-07
-3.11508e-07
-1.41765e-07
-2.86847e-07
-1.63304e-07
-2.58351e-07
-1.83097e-07
-2.2624e-07
-2.00258e-07
-1.90864e-07
-2.13815e-07
-1.52712e-07
-2.22701e-07
-1.12438e-07
-2.25639e-07
-7.10143e-08
-2.20654e-07
-3.05676e-08
-2.02167e-07
-1.40126e-07
-1.53951e-08
8.243e-08
-3.5348e-08
1.2116e-07
-5.5879e-08
1.35104e-07
-7.6378e-08
1.42802e-07
-9.67679e-08
1.47601e-07
-1.17071e-07
1.50448e-07
-1.37306e-07
1.51758e-07
-1.57469e-07
1.51768e-07
-1.77524e-07
1.50639e-07
-1.97414e-07
1.48487e-07
-2.1706e-07
1.45395e-07
-2.36374e-07
1.4142e-07
-2.55254e-07
1.36589e-07
-2.73595e-07
1.30899e-07
-2.91281e-07
1.24323e-07
-3.0819e-07
1.16805e-07
-3.24191e-07
1.08266e-07
-3.39139e-07
9.86042e-08
-3.52873e-07
8.77044e-08
-3.65212e-07
7.54409e-08
-3.75953e-07
6.16865e-08
-3.8487e-07
4.63219e-08
-3.91711e-07
2.92474e-08
-3.96196e-07
1.03961e-08
-3.98029e-07
-1.02526e-08
-3.9689e-07
-3.26505e-08
-3.92451e-07
-5.66647e-08
-3.84383e-07
-8.20643e-08
-3.72373e-07
-1.08502e-07
-3.56143e-07
-1.35498e-07
-3.35479e-07
-1.62429e-07
-3.10259e-07
-1.88524e-07
-2.80491e-07
-2.12865e-07
-2.46344e-07
-2.34405e-07
-2.0818e-07
-2.51979e-07
-1.66584e-07
-2.64297e-07
-1.22416e-07
-2.69807e-07
-7.6984e-08
-2.66087e-07
-3.28925e-08
-2.46258e-07
-1.73019e-07
-1.54073e-08
9.78374e-08
-3.56052e-08
1.41358e-07
-5.65508e-08
1.56049e-07
-7.75374e-08
1.63789e-07
-9.84237e-08
1.68488e-07
-1.19198e-07
1.71223e-07
-1.39873e-07
1.72432e-07
-1.60447e-07
1.72343e-07
-1.80903e-07
1.71094e-07
-2.012e-07
1.68784e-07
-2.21282e-07
1.65477e-07
-2.41079e-07
1.61217e-07
-2.60508e-07
1.56019e-07
-2.79482e-07
1.49873e-07
-2.979e-07
1.42741e-07
-3.15655e-07
1.34561e-07
-3.32628e-07
1.25239e-07
-3.48684e-07
1.1466e-07
-3.6367e-07
1.02691e-07
-3.7741e-07
8.91813e-08
-3.89702e-07
7.39777e-08
-4.00309e-07
5.69293e-08
-4.08962e-07
3.7901e-08
-4.15355e-07
1.67887e-08
-4.19144e-07
-6.46427e-09
-4.19945e-07
-3.18492e-08
-4.17346e-07
-5.92637e-08
-4.10911e-07
-8.84989e-08
-4.002e-07
-1.19213e-07
-3.84792e-07
-1.50907e-07
-3.64319e-07
-1.82902e-07
-3.38516e-07
-2.14327e-07
-3.07271e-07
-2.4411e-07
-2.7069e-07
-2.70986e-07
-2.29154e-07
-2.93515e-07
-1.83379e-07
-3.10072e-07
-1.34488e-07
-3.18697e-07
-8.41886e-08
-3.16386e-07
-3.56655e-08
-2.94781e-07
-2.08684e-07
-1.53531e-08
1.1319e-07
-3.57345e-08
1.61739e-07
-5.70406e-08
1.77355e-07
-7.84849e-08
1.85233e-07
-9.98687e-08
1.89871e-07
-1.21147e-07
1.92501e-07
-1.42315e-07
1.93601e-07
-1.63374e-07
1.93401e-07
-1.84312e-07
1.92033e-07
-2.05105e-07
1.89577e-07
-2.25714e-07
1.86086e-07
-2.46088e-07
1.81591e-07
-2.66166e-07
1.76096e-07
-2.85877e-07
1.69583e-07
-3.05141e-07
1.62006e-07
-3.23869e-07
1.53289e-07
-3.41958e-07
1.43328e-07
-3.5929e-07
1.31993e-07
-3.75726e-07
1.19126e-07
-3.91098e-07
1.04553e-07
-4.05207e-07
8.80867e-08
-4.17814e-07
6.95369e-08
-4.28636e-07
4.87225e-08
-4.37335e-07
2.54877e-08
-4.43522e-07
-2.77365e-10
-4.4674e-07
-2.86306e-08
-4.46481e-07
-5.9523e-08
-4.42181e-07
-9.27991e-08
-4.33242e-07
-1.28153e-07
-4.19057e-07
-1.65091e-07
-3.99061e-07
-2.02898e-07
-3.72788e-07
-2.40601e-07
-3.39958e-07
-2.7694e-07
-3.00575e-07
-3.1037e-07
-2.55024e-07
-3.39066e-07
-2.04175e-07
-3.60921e-07
-1.49474e-07
-3.73398e-07
-9.31306e-08
-3.7273e-07
-3.90887e-08
-3.48823e-07
-2.47773e-07
-1.52818e-08
1.28472e-07
-3.58267e-08
1.82284e-07
-5.74664e-08
1.98995e-07
-7.93505e-08
2.07117e-07
-1.01232e-07
2.11753e-07
-1.23034e-07
2.14303e-07
-1.44736e-07
2.15303e-07
-1.66332e-07
2.14998e-07
-1.87818e-07
2.13518e-07
-2.09178e-07
2.10937e-07
-2.3039e-07
2.07298e-07
-2.51421e-07
2.02622e-07
-2.72231e-07
1.96906e-07
-2.9277e-07
1.90122e-07
-3.12981e-07
1.82217e-07
-3.32797e-07
1.73105e-07
-3.52138e-07
1.62669e-07
-3.70906e-07
1.50761e-07
-3.88982e-07
1.37202e-07
-4.06215e-07
1.21786e-07
-4.22418e-07
1.04289e-07
-4.37354e-07
8.44737e-08
-4.50733e-07
6.21013e-08
-4.62193e-07
3.6948e-08
-4.71297e-07
8.82628e-09
-4.77519e-07
-2.24084e-08
-4.80239e-07
-5.68029e-08
-4.78746e-07
-9.42921e-08
-4.72251e-07
-1.34648e-07
-4.59914e-07
-1.77428e-07
-4.40902e-07
-2.2191e-07
-4.14472e-07
-2.6703e-07
-3.80091e-07
-3.11322e-07
-3.37582e-07
-3.52879e-07
-2.87294e-07
-3.89353e-07
-2.30257e-07
-4.17958e-07
-1.68324e-07
-4.35331e-07
-1.04373e-07
-4.3668e-07
-4.33642e-08
-4.09833e-07
-2.91137e-07
-1.52252e-08
1.43697e-07
-3.59383e-08
2.02997e-07
-5.79048e-08
2.20962e-07
-8.02216e-08
2.29434e-07
-1.02603e-07
2.34134e-07
-1.24942e-07
2.36643e-07
-1.47204e-07
2.37564e-07
-1.69376e-07
2.3717e-07
-1.91454e-07
2.35596e-07
-2.13434e-07
2.32917e-07
-2.35306e-07
2.2917e-07
-2.57056e-07
2.24372e-07
-2.78663e-07
2.18513e-07
-3.00103e-07
2.11562e-07
-3.21344e-07
2.03457e-07
-3.42345e-07
1.94105e-07
-3.63053e-07
1.83378e-07
-3.83401e-07
1.71109e-07
-4.03295e-07
1.57096e-07
-4.22611e-07
1.41102e-07
-4.41184e-07
1.22862e-07
-4.58793e-07
1.02083e-07
-4.7515e-07
7.84581e-08
-4.8988e-07
5.16788e-08
-5.02508e-07
2.14543e-08
-5.12444e-07
-1.24729e-08
-5.18949e-07
-5.02975e-08
-5.2115e-07
-9.20913e-08
-5.1803e-07
-1.37768e-07
-5.08458e-07
-1.87e-07
-4.91246e-07
-2.39122e-07
-4.65259e-07
-2.93017e-07
-4.29576e-07
-3.47005e-07
-3.83712e-07
-3.98742e-07
-3.27883e-07
-4.45182e-07
-2.63266e-07
-4.82575e-07
-1.9223e-07
-5.06368e-07
-1.18567e-07
-5.10343e-07
-4.8653e-08
-4.79747e-07
-3.3979e-07
-1.52013e-08
1.58899e-07
-3.61035e-08
2.23899e-07
-5.8404e-08
2.43262e-07
-8.11553e-08
2.52186e-07
-1.04039e-07
2.57018e-07
-1.26926e-07
2.5953e-07
-1.49764e-07
2.60403e-07
-1.72536e-07
2.59941e-07
-1.95236e-07
2.58297e-07
-2.17869e-07
2.55549e-07
-2.40437e-07
2.51739e-07
-2.62944e-07
2.46879e-07
-2.85392e-07
2.40962e-07
-3.07782e-07
2.33952e-07
-3.30109e-07
2.25785e-07
-3.52365e-07
2.16361e-07
-3.74532e-07
2.05544e-07
-3.96576e-07
1.93153e-07
-4.18443e-07
1.78963e-07
-4.40047e-07
1.62706e-07
-4.61257e-07
1.44072e-07
-4.81884e-07
1.2271e-07
-5.01662e-07
9.82362e-08
-5.20223e-07
7.02395e-08
-5.37069e-07
3.83005e-08
-5.51563e-07
2.02131e-09
-5.62849e-07
-3.90113e-08
-5.69887e-07
-8.50535e-08
-5.71399e-07
-1.36256e-07
-5.65895e-07
-1.92504e-07
-5.51725e-07
-2.53292e-07
-5.272e-07
-3.17542e-07
-4.90809e-07
-3.83396e-07
-4.41545e-07
-4.48007e-07
-3.79309e-07
-5.07418e-07
-3.0536e-07
-5.56524e-07
-2.22709e-07
-5.89018e-07
-1.36458e-07
-5.96594e-07
-5.50745e-08
-5.6113e-07
-3.94865e-07
-1.52188e-08
1.74118e-07
-3.63414e-08
2.45022e-07
-5.89928e-08
2.65914e-07
-8.21873e-08
2.7538e-07
-1.05579e-07
2.8041e-07
-1.2902e-07
2.82971e-07
-1.52443e-07
2.83826e-07
-1.75824e-07
2.83322e-07
-1.99159e-07
2.81632e-07
-2.22458e-07
2.78848e-07
-2.45737e-07
2.75017e-07
-2.69016e-07
2.70159e-07
-2.92321e-07
2.64267e-07
-3.15679e-07
2.5731e-07
-3.39119e-07
2.49224e-07
-3.62668e-07
2.3991e-07
-3.86348e-07
2.29224e-07
-4.1017e-07
2.16976e-07
-4.3413e-07
2.02923e-07
-4.58192e-07
1.86768e-07
-4.82281e-07
1.6816e-07
-5.06259e-07
1.46688e-07
-5.29908e-07
1.21885e-07
-5.52895e-07
9.32261e-08
-5.74736e-07
6.01418e-08
-5.94747e-07
2.20324e-08
-6.12025e-07
-2.1733e-08
-6.25337e-07
-7.17416e-08
-6.33131e-07
-1.28462e-07
-6.33493e-07
-1.92142e-07
-6.2418e-07
-2.62605e-07
-6.0274e-07
-3.38983e-07
-5.66775e-07
-4.19361e-07
-5.14402e-07
-5.0038e-07
-4.44888e-07
-5.76933e-07
-3.59392e-07
-6.4202e-07
-2.61715e-07
-6.86694e-07
-1.58902e-07
-6.99407e-07
-6.26397e-08
-6.57393e-07
-4.57504e-07
-1.52812e-08
1.89399e-07
-3.66617e-08
2.66402e-07
-5.96881e-08
2.8894e-07
-8.33395e-08
2.99031e-07
-1.07247e-07
3.04317e-07
-1.31244e-07
3.06968e-07
-1.55253e-07
3.07834e-07
-1.79243e-07
3.07311e-07
-2.0321e-07
3.05599e-07
-2.27169e-07
3.02807e-07
-2.51149e-07
2.98997e-07
-2.75189e-07
2.94198e-07
-2.99337e-07
2.88415e-07
-3.2365e-07
2.81623e-07
-3.48191e-07
2.73765e-07
-3.73028e-07
2.64747e-07
-3.98231e-07
2.54427e-07
-4.23866e-07
2.4261e-07
-4.49987e-07
2.29044e-07
-4.76629e-07
2.1341e-07
-5.0379e-07
1.95321e-07
-5.31413e-07
1.74311e-07
-5.59358e-07
1.49831e-07
-5.87369e-07
1.21237e-07
-6.15019e-07
8.77915e-08
-6.41645e-07
4.86588e-08
-6.66317e-07
2.93882e-09
-6.87648e-07
-5.0411e-08
-7.03824e-07
-1.12286e-07
-7.12453e-07
-1.83512e-07
-7.10565e-07
-2.64493e-07
-6.94678e-07
-3.5487e-07
-6.61087e-07
-4.52952e-07
-6.06479e-07
-5.54988e-07
-5.28914e-07
-6.54498e-07
-4.29069e-07
-7.41865e-07
-3.11672e-07
-8.04091e-07
-1.8674e-07
-8.2434e-07
-7.10816e-08
-7.73051e-07
-5.28586e-07
-1.53889e-08
2.04788e-07
-3.70687e-08
2.88082e-07
-6.04995e-08
3.12371e-07
-8.46261e-08
3.23158e-07
-1.09058e-07
3.28749e-07
-1.33613e-07
3.31523e-07
-1.58202e-07
3.32423e-07
-1.82789e-07
3.31897e-07
-2.07368e-07
3.30179e-07
-2.31962e-07
3.27402e-07
-2.56611e-07
3.23646e-07
-2.81371e-07
3.18958e-07
-3.06315e-07
3.13359e-07
-3.31531e-07
3.06838e-07
-3.57119e-07
2.99353e-07
-3.83192e-07
2.90821e-07
-4.09874e-07
2.81109e-07
-4.37292e-07
2.70029e-07
-4.65577e-07
2.57328e-07
-4.94846e-07
2.4268e-07
-5.25198e-07
2.25673e-07
-5.56686e-07
2.05799e-07
-5.89292e-07
1.82437e-07
-6.22885e-07
1.5483e-07
-6.57161e-07
1.22067e-07
-6.91561e-07
8.30593e-08
-7.25152e-07
3.65296e-08
-7.56555e-07
-1.90082e-08
-7.83685e-07
-8.51563e-08
-8.03676e-07
-1.63521e-07
-8.12708e-07
-2.55462e-07
-8.0598e-07
-3.61597e-07
-7.7791e-07
-4.81022e-07
-7.22898e-07
-6.09999e-07
-6.36798e-07
-7.40597e-07
-5.19007e-07
-8.59657e-07
-3.75293e-07
-9.47805e-07
-2.20362e-07
-9.79271e-07
-7.95243e-08
-9.13889e-07
-6.0811e-07
-1.55418e-08
2.2033e-07
-3.75655e-08
3.10106e-07
-6.14349e-08
3.3624e-07
-8.60592e-08
3.47782e-07
-1.11027e-07
3.53717e-07
-1.3614e-07
3.56636e-07
-1.61298e-07
3.57582e-07
-1.86458e-07
3.57058e-07
-2.11617e-07
3.55338e-07
-2.36801e-07
3.52585e-07
-2.62061e-07
3.48906e-07
-2.87471e-07
3.44369e-07
-3.1313e-07
3.39018e-07
-3.39156e-07
3.32864e-07
-3.65689e-07
3.25886e-07
-3.9289e-07
3.18022e-07
-4.2094e-07
3.09159e-07
-4.50039e-07
2.99128e-07
-4.80401e-07
2.8769e-07
-5.12248e-07
2.74527e-07
-5.458e-07
2.59225e-07
-5.81256e-07
2.41255e-07
-6.18766e-07
2.19947e-07
-6.58386e-07
1.9445e-07
-7.00012e-07
1.63694e-07
-7.43283e-07
1.2633e-07
-7.8743e-07
8.06764e-08
-8.3113e-07
2.46921e-08
-8.72202e-07
-4.40841e-08
-9.07367e-07
-1.28357e-07
-9.31906e-07
-2.30922e-07
-9.39426e-07
-3.54078e-07
-9.21781e-07
-4.98667e-07
-8.6981e-07
-6.6197e-07
-7.75403e-07
-8.35005e-07
-6.35037e-07
-1.00002e-06
-4.55411e-07
-1.12743e-06
-2.58953e-07
-1.17573e-06
-8.59768e-08
-1.08686e-06
-6.94087e-07
-1.57406e-08
2.3607e-07
-3.81568e-08
3.32522e-07
-6.25043e-08
3.60588e-07
-8.76537e-08
3.72932e-07
-1.13171e-07
3.79234e-07
-1.38841e-07
3.82306e-07
-1.64552e-07
3.83293e-07
-1.90255e-07
3.82761e-07
-2.15946e-07
3.81028e-07
-2.41654e-07
3.78294e-07
-2.67443e-07
3.74695e-07
-2.93405e-07
3.70331e-07
-3.19661e-07
3.65274e-07
-3.46361e-07
3.59564e-07
-3.73684e-07
3.5321e-07
-4.01843e-07
3.4618e-07
-4.31078e-07
3.38394e-07
-4.61665e-07
3.29715e-07
-4.93914e-07
3.19939e-07
-5.28164e-07
3.08776e-07
-5.64779e-07
2.9584e-07
-6.04136e-07
2.80612e-07
-6.46601e-07
2.62411e-07
-6.92485e-07
2.40334e-07
-7.41977e-07
2.13186e-07
-7.95034e-07
1.79387e-07
-8.51218e-07
1.36861e-07
-9.0943e-07
8.29042e-08
-9.67683e-07
1.41685e-08
-1.02248e-06
-7.35636e-08
-1.06831e-06
-1.85088e-07
-1.09709e-06
-3.25297e-07
-1.09744e-06
-4.98319e-07
-1.05488e-06
-7.04527e-07
-9.54428e-07
-9.35459e-07
-7.86167e-07
-1.16828e-06
-5.56721e-07
-1.35688e-06
-3.01716e-07
-1.43073e-06
-8.82525e-08
-1.30033e-06
-7.82339e-07
-1.59887e-08
2.52059e-07
-3.88521e-08
3.55385e-07
-6.37244e-08
3.8546e-07
-8.94326e-08
3.9864e-07
-1.15517e-07
4.05318e-07
-1.41744e-07
4.08532e-07
-1.67988e-07
4.09538e-07
-1.94195e-07
4.08967e-07
-2.20355e-07
4.07189e-07
-2.46505e-07
4.04444e-07
-2.72718e-07
4.00907e-07
-2.99101e-07
3.96715e-07
-3.258e-07
3.91972e-07
-3.52993e-07
3.86757e-07
-3.809e-07
3.81117e-07
-4.09779e-07
3.75059e-07
-4.39935e-07
3.6855e-07
-4.7172e-07
3.61501e-07
-5.05543e-07
3.53761e-07
-5.41868e-07
3.45101e-07
-5.81221e-07
3.35193e-07
-6.24184e-07
3.23575e-07
-6.71379e-07
3.09606e-07
-7.23435e-07
2.92391e-07
-7.8093e-07
2.70681e-07
-8.44278e-07
2.42735e-07
-9.13555e-07
2.06138e-07
-9.8823e-07
1.57578e-07
-1.06664e-06
9.25812e-08
-1.14598e-06
5.77829e-09
-1.22006e-06
-1.11011e-07
-1.27961e-06
-2.65744e-07
-1.30964e-06
-4.68289e-07
-1.28847e-06
-7.25704e-07
-1.18964e-06
-1.03428e-06
-9.90011e-07
-1.36792e-06
-6.95572e-07
-1.65132e-06
-3.61905e-07
-1.7644e-06
-9.35147e-08
-1.56872e-06
-8.75854e-07
-1.62935e-08
2.68352e-07
-3.96685e-08
3.7876e-07
-6.51221e-08
4.10914e-07
-9.14315e-08
4.24949e-07
-1.18106e-07
4.31993e-07
-1.44891e-07
4.35317e-07
-1.71647e-07
4.36294e-07
-1.98308e-07
4.35628e-07
-2.24865e-07
4.33746e-07
-2.51355e-07
4.30934e-07
-2.77862e-07
4.27414e-07
-3.04508e-07
4.23361e-07
-3.31458e-07
4.18922e-07
-3.5892e-07
4.1422e-07
-3.87149e-07
4.09345e-07
-4.16446e-07
4.04357e-07
-4.47174e-07
3.99278e-07
-4.7976e-07
3.94087e-07
-5.14708e-07
3.88709e-07
-5.52609e-07
3.83002e-07
-5.94154e-07
3.76739e-07
-6.40142e-07
3.69563e-07
-6.91476e-07
3.6094e-07
-7.49151e-07
3.50066e-07
-8.14209e-07
3.35739e-07
-8.87653e-07
3.16179e-07
-9.70291e-07
2.88777e-07
-1.06248e-06
2.49771e-07
-1.16372e-06
1.93821e-07
-1.27162e-06
1.13672e-07
-1.38192e-06
-7.08728e-10
-1.48456e-06
-1.63102e-07
-1.56162e-06
-3.91226e-07
-1.5826e-06
-7.04727e-07
-1.50318e-06
-1.11371e-06
-1.27964e-06
-1.59146e-06
-9.25079e-07
-2.00587e-06
-5.08623e-07
-2.18086e-06
-1.4802e-07
-1.92932e-06
-1.02387e-06
-1.66676e-08
2.8502e-07
-4.06333e-08
4.02726e-07
-6.67388e-08
4.37019e-07
-9.37028e-08
4.51913e-07
-1.20999e-07
4.59289e-07
-1.48346e-07
4.62665e-07
-1.75588e-07
4.63535e-07
-2.02648e-07
4.62688e-07
-2.29513e-07
4.60611e-07
-2.56225e-07
4.57646e-07
-2.82873e-07
4.54062e-07
-3.09595e-07
4.50082e-07
-3.36573e-07
4.459e-07
-3.64038e-07
4.41685e-07
-3.92274e-07
4.37581e-07
-4.21623e-07
4.33705e-07
-4.52493e-07
4.30148e-07
-4.85376e-07
4.2697e-07
-5.2086e-07
4.24193e-07
-5.59652e-07
4.21794e-07
-6.02596e-07
4.19683e-07
-6.50698e-07
4.17665e-07
-7.05141e-07
4.15382e-07
-7.67291e-07
4.12216e-07
-8.38693e-07
4.0714e-07
-9.21022e-07
3.98507e-07
-1.016e-06
3.83751e-07
-1.1252e-06
3.58977e-07
-1.24977e-06
3.18389e-07
-1.38974e-06
2.53646e-07
-1.54274e-06
1.52283e-07
-1.70188e-06
-3.95701e-09
-1.84747e-06
-2.45636e-07
-1.93966e-06
-6.12536e-07
-1.90948e-06
-1.14389e-06
-1.69923e-06
-1.80171e-06
-1.33209e-06
-2.373e-06
-8.54191e-07
-2.65876e-06
-3.36122e-07
-2.44739e-06
-1.36e-06
-1.71309e-08
3.02151e-07
-4.17871e-08
4.27382e-07
-6.86335e-08
4.63866e-07
-9.63204e-08
4.796e-07
-1.24278e-07
4.87247e-07
-1.52194e-07
4.90582e-07
-1.79893e-07
4.91234e-07
-2.07287e-07
4.90082e-07
-2.3436e-07
4.87683e-07
-2.61155e-07
4.84441e-07
-2.8777e-07
4.80677e-07
-3.14354e-07
4.76666e-07
-3.41104e-07
4.72651e-07
-3.6827e-07
4.68851e-07
-3.96155e-07
4.65466e-07
-4.2513e-07
4.62679e-07
-4.55637e-07
4.60655e-07
-4.88214e-07
4.59547e-07
-5.23514e-07
4.59493e-07
-5.62331e-07
4.60611e-07
-6.05632e-07
4.62984e-07
-6.54592e-07
4.66624e-07
-7.10629e-07
4.71419e-07
-7.75439e-07
4.77027e-07
-8.51029e-07
4.8273e-07
-9.39736e-07
4.87214e-07
-1.04424e-06
4.88258e-07
-1.16757e-06
4.82302e-07
-1.31302e-06
4.63843e-07
-1.48376e-06
4.24386e-07
-1.68159e-06
3.50107e-07
-1.903e-06
2.17459e-07
-2.12954e-06
-1.90992e-08
-2.29959e-06
-4.42483e-07
-2.32096e-06
-1.12253e-06
-2.17145e-06
-1.95121e-06
-1.84939e-06
-2.69506e-06
-1.33877e-06
-3.16939e-06
-6.57565e-07
-3.12859e-06
-2.01756e-06
-1.77116e-08
3.19862e-07
-4.31869e-08
4.52858e-07
-7.08875e-08
4.91566e-07
-9.93826e-08
5.08095e-07
-1.28051e-07
5.15915e-07
-1.56545e-07
5.19076e-07
-1.84668e-07
5.19356e-07
-2.1232e-07
5.17734e-07
-2.39482e-07
5.14846e-07
-2.66203e-07
5.11162e-07
-2.92588e-07
5.07062e-07
-3.18795e-07
5.02873e-07
-3.45033e-07
4.98889e-07
-3.71564e-07
4.95382e-07
-3.98703e-07
4.92606e-07
-4.26832e-07
4.90808e-07
-4.56412e-07
4.90235e-07
-4.88002e-07
4.91138e-07
-5.22287e-07
4.93778e-07
-5.60107e-07
4.98432e-07
-6.025e-07
5.05377e-07
-6.50742e-07
5.14866e-07
-7.06398e-07
5.27076e-07
-7.71383e-07
5.42011e-07
-8.48023e-07
5.59371e-07
-9.39155e-07
5.78346e-07
-1.04824e-06
5.97342e-07
-1.17956e-06
6.13619e-07
-1.33841e-06
6.22695e-07
-1.53057e-06
6.16545e-07
-1.76091e-06
5.80452e-07
-2.0259e-06
4.82452e-07
-2.28526e-06
2.4026e-07
-2.4428e-06
-2.84945e-07
-2.44762e-06
-1.11771e-06
-2.34588e-06
-2.05295e-06
-2.10554e-06
-2.9354e-06
-1.6388e-06
-3.63612e-06
-9.33794e-07
-3.8336e-06
-2.95135e-06
-1.8449e-08
3.38311e-07
-4.49098e-08
4.79318e-07
-7.36076e-08
5.20264e-07
-1.03016e-07
5.37504e-07
-1.32453e-07
5.45352e-07
-1.61533e-07
5.48156e-07
-1.90034e-07
5.47858e-07
-2.1785e-07
5.4555e-07
-2.44963e-07
5.41959e-07
-2.71428e-07
5.37626e-07
-2.9736e-07
5.32993e-07
-3.22926e-07
5.2844e-07
-3.48346e-07
5.24308e-07
-3.73882e-07
5.20918e-07
-3.99852e-07
5.18576e-07
-4.26636e-07
5.17592e-07
-4.54686e-07
5.18286e-07
-4.84556e-07
5.21008e-07
-5.16922e-07
5.26144e-07
-5.52619e-07
5.34129e-07
-5.92683e-07
5.45441e-07
-6.38397e-07
5.6058e-07
-6.91345e-07
5.80023e-07
-7.53479e-07
6.04146e-07
-8.2721e-07
6.33102e-07
-9.15536e-07
6.66672e-07
-1.02224e-06
7.04043e-07
-1.15221e-06
7.43589e-07
-1.31164e-06
7.82128e-07
-1.50737e-06
8.12272e-07
-1.74441e-06
8.17496e-07
-2.01138e-06
7.49421e-07
-2.24757e-06
4.76446e-07
-2.35621e-06
-1.76296e-07
-2.33759e-06
-1.13633e-06
-2.22618e-06
-2.16436e-06
-2.00233e-06
-3.15925e-06
-1.60258e-06
-4.03588e-06
-9.98043e-07
-4.43814e-06
-3.9494e-06
-1.93959e-08
3.57707e-07
-4.70571e-08
5.0698e-07
-7.69309e-08
5.50138e-07
-1.07378e-07
5.67951e-07
-1.37647e-07
5.7562e-07
-1.67309e-07
5.77818e-07
-1.96125e-07
5.76673e-07
-2.23984e-07
5.73409e-07
-2.50878e-07
5.68852e-07
-2.76873e-07
5.63622e-07
-3.02099e-07
5.5822e-07
-3.26737e-07
5.53077e-07
-3.51006e-07
5.48578e-07
-3.75171e-07
5.45083e-07
-3.99538e-07
5.42943e-07
-4.24464e-07
5.42518e-07
-4.50373e-07
5.44196e-07
-4.77778e-07
5.48412e-07
-5.07302e-07
5.55668e-07
-5.39717e-07
5.66543e-07
-5.75976e-07
5.817e-07
-6.17259e-07
6.01863e-07
-6.65017e-07
6.27781e-07
-7.21029e-07
6.60158e-07
-7.87478e-07
6.99551e-07
-8.67072e-07
7.46265e-07
-9.63236e-07
8.00208e-07
-1.08039e-06
8.60747e-07
-1.22386e-06
9.25593e-07
-1.39907e-06
9.87482e-07
-1.60623e-06
1.02465e-06
-1.82257e-06
9.65766e-07
-1.98309e-06
6.36966e-07
-2.02378e-06
-1.35608e-07
-1.97754e-06
-1.18257e-06
-1.87461e-06
-2.26729e-06
-1.69916e-06
-3.3347e-06
-1.39164e-06
-4.3434e-06
-8.64221e-07
-4.96556e-06
-4.81362e-06
-2.06228e-08
3.7833e-07
-4.976e-08
5.36117e-07
-8.10282e-08
5.81406e-07
-1.12655e-07
5.99578e-07
-1.43812e-07
6.06777e-07
-1.74031e-07
6.08037e-07
-2.03061e-07
6.05703e-07
-2.308e-07
6.01149e-07
-2.57259e-07
5.95311e-07
-2.82529e-07
5.88892e-07
-3.06761e-07
5.82452e-07
-3.30149e-07
5.76465e-07
-3.52919e-07
5.71348e-07
-3.75326e-07
5.67489e-07
-3.97652e-07
5.65269e-07
-4.20218e-07
5.65084e-07
-4.43395e-07
5.67373e-07
-4.6762e-07
5.72637e-07
-4.93423e-07
5.81471e-07
-5.21451e-07
5.94571e-07
-5.52499e-07
6.12748e-07
-5.87538e-07
6.36902e-07
-6.27741e-07
6.67984e-07
-6.74506e-07
7.06923e-07
-7.29492e-07
7.54537e-07
-7.94655e-07
8.11429e-07
-8.72342e-07
8.77894e-07
-9.65306e-07
9.53712e-07
-1.07631e-06
1.0366e-06
-1.20741e-06
1.11858e-06
-1.35128e-06
1.16852e-06
-1.48383e-06
1.09832e-06
-1.55962e-06
7.12751e-07
-1.56593e-06
-1.293e-07
-1.5299e-06
-1.2186e-06
-1.47127e-06
-2.32592e-06
-1.36776e-06
-3.43821e-06
-1.15553e-06
-4.55563e-06
-7.02126e-07
-5.41896e-06
-5.51574e-06
-2.22228e-08
4.00553e-07
-5.31851e-08
5.67079e-07
-8.61068e-08
6.14328e-07
-1.19062e-07
6.32534e-07
-1.5114e-07
6.38855e-07
-1.81844e-07
6.38741e-07
-2.10925e-07
6.34785e-07
-2.38313e-07
6.28537e-07
-2.64056e-07
6.21054e-07
-2.88286e-07
6.13121e-07
-3.11185e-07
6.05352e-07
-3.32968e-07
5.98248e-07
-3.53865e-07
5.92245e-07
-3.74117e-07
5.87742e-07
-3.93976e-07
5.85128e-07
-4.1371e-07
5.84817e-07
-4.33611e-07
5.87274e-07
-4.54018e-07
5.93044e-07
-4.75325e-07
6.02777e-07
-4.98008e-07
6.17255e-07
-5.22642e-07
6.37381e-07
-5.49905e-07
6.64165e-07
-5.80583e-07
6.98662e-07
-6.15548e-07
7.41889e-07
-6.55723e-07
7.94712e-07
-7.02015e-07
8.57721e-07
-7.55254e-07
9.31133e-07
-8.15913e-07
1.01437e-06
-8.83701e-07
1.10438e-06
-9.55604e-07
1.19048e-06
-1.02063e-06
1.23355e-06
-1.06675e-06
1.14445e-06
-1.07913e-06
7.25128e-07
-1.07557e-06
-1.32858e-07
-1.07107e-06
-1.2231e-06
-1.06276e-06
-2.33423e-06
-1.0256e-06
-3.47537e-06
-9.07739e-07
-4.67349e-06
-5.7533e-07
-5.75137e-06
-6.09107e-06
-2.4319e-08
4.24872e-07
-5.75426e-08
6.00303e-07
-9.24128e-08
6.49198e-07
-1.26831e-07
6.66952e-07
-1.59809e-07
6.71833e-07
-1.90841e-07
6.69772e-07
-2.19715e-07
6.63659e-07
-2.4642e-07
6.55241e-07
-2.71071e-07
6.45705e-07
-2.93861e-07
6.35912e-07
-3.15021e-07
6.26512e-07
-3.34794e-07
6.18021e-07
-3.53416e-07
6.10868e-07
-3.71113e-07
6.05438e-07
-3.88094e-07
6.02109e-07
-4.04561e-07
6.01285e-07
-4.20717e-07
6.0343e-07
-4.36773e-07
6.091e-07
-4.52965e-07
6.18969e-07
-4.69565e-07
6.33854e-07
-4.86884e-07
6.547e-07
-5.05266e-07
6.82547e-07
-5.2506e-07
7.18456e-07
-5.46558e-07
7.63387e-07
-5.69895e-07
8.1805e-07
-5.94891e-07
8.82717e-07
-6.20842e-07
9.57084e-07
-6.46012e-07
1.03954e-06
-6.66931e-07
1.1253e-06
-6.77198e-07
1.20075e-06
-6.68893e-07
1.22524e-06
-6.40577e-07
1.11614e-06
-6.08695e-07
6.93246e-07
-6.09165e-07
-1.32388e-07
-6.4208e-07
-1.19019e-06
-6.87038e-07
-2.28927e-06
-7.15214e-07
-3.4472e-06
-6.81205e-07
-4.7075e-06
-4.55841e-07
-5.97673e-06
-6.54691e-06
-2.70748e-08
4.51947e-07
-6.30964e-08
6.36324e-07
-1.00232e-07
6.86333e-07
-1.36196e-07
7.02916e-07
-1.69948e-07
7.05585e-07
-2.01014e-07
7.00839e-07
-2.29272e-07
6.91916e-07
-2.54814e-07
6.80783e-07
-2.77863e-07
6.68755e-07
-2.98703e-07
6.56751e-07
-3.17629e-07
6.45438e-07
-3.34923e-07
6.35314e-07
-3.50829e-07
6.26774e-07
-3.65554e-07
6.20163e-07
-3.7926e-07
6.15815e-07
-3.92075e-07
6.14099e-07
-4.04097e-07
6.15453e-07
-4.15399e-07
6.20401e-07
-4.26041e-07
6.29612e-07
-4.36077e-07
6.4389e-07
-4.45544e-07
6.64168e-07
-4.54447e-07
6.9145e-07
-4.62709e-07
7.26718e-07
-4.70089e-07
7.70767e-07
-4.76043e-07
8.24003e-07
-4.79503e-07
8.86177e-07
-4.78562e-07
9.56143e-07
-4.69931e-07
1.03091e-06
-4.48431e-07
1.1038e-06
-4.07229e-07
1.15955e-06
-3.42186e-07
1.1602e-06
-2.58308e-07
1.03226e-06
-1.97156e-07
6.32093e-07
-2.02774e-07
-1.2677e-07
-2.73231e-07
-1.11973e-06
-3.71124e-07
-2.19138e-06
-4.58588e-07
-3.35973e-06
-4.85199e-07
-4.68089e-06
-3.72488e-07
-6.08944e-06
-6.9194e-06
-3.0711e-08
4.82658e-07
-7.01789e-08
6.75792e-07
-1.09885e-07
7.26039e-07
-1.47365e-07
7.40396e-07
-1.81579e-07
7.39799e-07
-2.1217e-07
7.3143e-07
-2.39179e-07
7.18925e-07
-2.62874e-07
7.04478e-07
-2.83634e-07
6.89515e-07
-3.01865e-07
6.74982e-07
-3.17948e-07
6.61521e-07
-3.32207e-07
6.49573e-07
-3.44898e-07
6.39466e-07
-3.56206e-07
6.3147e-07
-3.66238e-07
6.25848e-07
-3.75041e-07
6.22902e-07
-3.82612e-07
6.23023e-07
-3.88871e-07
6.26661e-07
-3.93705e-07
6.34446e-07
-3.9695e-07
6.47134e-07
-3.98383e-07
6.65601e-07
-3.977e-07
6.90767e-07
-3.94463e-07
7.23481e-07
-3.8802e-07
7.64325e-07
-3.77365e-07
8.13347e-07