/*--------------------------------*- C++ -*----------------------------------*\
  =========                 |
  \\      /  F ield         | OpenFOAM: The Open Source CFD Toolbox
   \\    /   O peration     | Website:  https://openfoam.org
    \\  /    A nd           | Version:  12
     \\/     M anipulation  |
\*---------------------------------------------------------------------------*/
FoamFile
{
    format      ascii;
    class       volVectorField;
    location    "0.6";
    object      U;
}
// * * * * * * * * * * * * * * * * * * * * * * * * * * * * * * * * * * * * * //

dimensions      [0 1 -1 0 0 0 0];

internalField   nonuniform List<vector> 
1600
(
(6.30187e-05 -6.2772e-05 0)
(3.63894e-05 2.04061e-05 0)
(-0.000238991 0.000123063 0)
(-0.000666445 0.000191631 0)
(-0.0011838 0.000226959 0)
(-0.00174525 0.000241858 0)
(-0.00232371 0.000245348 0)
(-0.00290282 0.000242579 0)
(-0.00347288 0.00023656 0)
(-0.00402831 0.000229075 0)
(-0.00456602 0.0002211 0)
(-0.00508428 0.000213075 0)
(-0.00558191 0.000205072 0)
(-0.00605776 0.00019694 0)
(-0.00651032 0.000188378 0)
(-0.00693758 0.000179023 0)
(-0.00733684 0.000168489 0)
(-0.00770467 0.000156364 0)
(-0.0080369 0.000142243 0)
(-0.00832858 0.000125698 0)
(-0.00857404 0.000106219 0)
(-0.00876765 8.31799e-05 0)
(-0.00890164 5.62865e-05 0)
(-0.00896529 2.97142e-05 0)
(-0.00896065 -5.24033e-06 0)
(-0.00886966 -4.34793e-05 0)
(-0.00868921 -8.59619e-05 0)
(-0.00841111 -0.000132289 0)
(-0.00802956 -0.000181852 0)
(-0.00754055 -0.000233413 0)
(-0.00694314 -0.000285171 0)
(-0.00624019 -0.000334571 0)
(-0.00543946 -0.00037836 0)
(-0.00455698 -0.000413661 0)
(-0.00361426 -0.000434562 0)
(-0.0026462 -0.000432374 0)
(-0.00170446 -0.000392704 0)
(-0.000868805 -0.000294533 0)
(-0.000240557 -0.000131406 0)
(1.39197e-05 1.30542e-05 0)
(-2.04492e-05 -3.7122e-05 0)
(-0.000306053 0.000309164 0)
(-0.00081525 0.000615829 0)
(-0.00143883 0.000808878 0)
(-0.00213833 0.000913299 0)
(-0.00287859 0.000961358 0)
(-0.00363785 0.000975414 0)
(-0.00440103 0.000968831 0)
(-0.00515734 0.000949747 0)
(-0.00589907 0.000923155 0)
(-0.00662054 0.000891986 0)
(-0.00731739 0.000857752 0)
(-0.00798597 0.000820976 0)
(-0.00862291 0.000781489 0)
(-0.00922476 0.000738671 0)
(-0.00978777 0.000691619 0)
(-0.0103077 0.000639275 0)
(-0.0107796 0.000580504 0)
(-0.0111979 0.000514153 0)
(-0.0115563 0.00043908 0)
(-0.011848 0.000354185 0)
(-0.0120656 0.000258349 0)
(-0.0122011 0.000150892 0)
(-0.0122456 3.22503e-05 0)
(-0.012191 -9.88841e-05 0)
(-0.0120294 -0.000243058 0)
(-0.0117535 -0.000398599 0)
(-0.0113573 -0.000563886 0)
(-0.0108367 -0.000736147 0)
(-0.0101903 -0.000911457 0)
(-0.00941963 -0.00108455 0)
(-0.00853049 -0.00124848 0)
(-0.00753327 -0.00139424 0)
(-0.00644353 -0.00151015 0)
(-0.00528557 -0.0015815 0)
(-0.00409111 -0.00158613 0)
(-0.00290295 -0.00148947 0)
(-0.00178569 -0.00124257 0)
(-0.000807285 -0.000802871 0)
(-0.000127443 -0.00023908 0)
(-0.000126821 0.000237775 0)
(-0.000614441 0.000817533 0)
(-0.00122413 0.00122722 0)
(-0.00189991 0.00148572 0)
(-0.00262736 0.00163469 0)
(-0.00338618 0.00171006 0)
(-0.00416358 0.00173704 0)
(-0.00494845 0.00173193 0)
(-0.00573125 0.0017053 0)
(-0.00650399 0.00166396 0)
(-0.00726002 0.0016122 0)
(-0.00799365 0.00155244 0)
(-0.00869985 0.00148576 0)
(-0.00937396 0.00141223 0)
(-0.0100114 0.00133118 0)
(-0.0106076 0.00124144 0)
(-0.0111574 0.00114153 0)
(-0.0116554 0.00102979 0)
(-0.0120956 0.000904464 0)
(-0.0124715 0.000763828 0)
(-0.0127759 0.000606243 0)
(-0.0130011 0.000430264 0)
(-0.0131393 0.000234929 0)
(-0.0131819 1.98442e-05 0)
(-0.0131209 -0.00021581 0)
(-0.0129486 -0.000470802 0)
(-0.0126585 -0.000743043 0)
(-0.0122452 -0.00102913 0)
(-0.0117056 -0.00132398 0)
(-0.011039 -0.00162078 0)
(-0.0102483 -0.00191071 0)
(-0.00933999 -0.00218273 0)
(-0.00832501 -0.00242331 0)
(-0.00721925 -0.00261574 0)
(-0.0060439 -0.00273897 0)
(-0.00482465 -0.00276491 0)
(-0.00359202 -0.00265355 0)
(-0.00239243 -0.00234996 0)
(-0.00126112 -0.00178702 0)
(-0.00028338 -0.000864743 0)
(-0.000199929 0.000668906 0)
(-0.00081351 0.00143762 0)
(-0.00148688 0.00190064 0)
(-0.00219645 0.00219454 0)
(-0.00293768 0.00237286 0)
(-0.00369887 0.00246976 0)
(-0.00447449 0.00250929 0)
(-0.00525785 0.00250797 0)
(-0.00604154 0.00247712 0)
(-0.00681845 0.00242447 0)
(-0.00758201 0.0023551 0)
(-0.00832616 0.00227209 0)
(-0.00904533 0.00217696 0)
(-0.00973421 0.00207001 0)
(-0.0103876 0.00195062 0)
(-0.0110004 0.00181746 0)
(-0.0115671 0.00166873 0)
(-0.012082 0.00150233 0)
(-0.0125387 0.00131601 0)
(-0.0129307 0.00110751 0)
(-0.0132506 0.000874689 0)
(-0.0134907 0.000615723 0)
(-0.0136428 0.000329321 0)
(-0.0136988 1.48592e-05 0)
(-0.0136504 -0.000327609 0)
(-0.0134899 -0.000696436 0)
(-0.0132108 -0.00108834 0)
(-0.0128077 -0.00149811 0)
(-0.0122775 -0.00191843 0)
(-0.0116192 -0.00233962 0)
(-0.0108352 -0.00274945 0)
(-0.00993141 -0.003133 0)
(-0.00891762 -0.00347247 0)
(-0.00780784 -0.00374677 0)
(-0.00661989 -0.00393075 0)
(-0.0053738 -0.00399332 0)
(-0.00409176 -0.00389376 0)
(-0.00281159 -0.00357725 0)
(-0.00155746 -0.00295411 0)
(-0.000383303 -0.00171097 0)
(-0.000239572 0.00119476 0)
(-0.00092757 0.00213507 0)
(-0.00164734 0.00262605 0)
(-0.00238783 0.00293505 0)
(-0.00314625 0.00312912 0)
(-0.00391433 0.00324005 0)
(-0.00469103 0.0032892 0)
(-0.0054732 0.00329166 0)
(-0.00625583 0.00325823 0)
(-0.00703323 0.00319665 0)
(-0.00779958 0.00311222 0)
(-0.00854917 0.00300832 0)
(-0.00927641 0.00288674 0)
(-0.00997585 0.00274796 0)
(-0.0106421 0.00259137 0)
(-0.0112698 0.00241554 0)
(-0.0118533 0.00221843 0)
(-0.0123866 0.00199755 0)
(-0.0128634 0.00175017 0)
(-0.0132769 0.00147354 0)
(-0.0136197 0.00116501 0)
(-0.0138838 0.000822357 0)
(-0.014061 0.000443953 0)
(-0.0141428 2.9082e-05 0)
(-0.0141205 -0.000421674 0)
(-0.0139862 -0.000906168 0)
(-0.0137324 -0.00141997 0)
(-0.013353 -0.00195625 0)
(-0.0128438 -0.00250556 0)
(-0.0122024 -0.00305553 0)
(-0.0114297 -0.00359074 0)
(-0.0105296 -0.00409266 0)
(-0.00950994 -0.00453969 0)
(-0.00838206 -0.00490701 0)
(-0.00716066 -0.00516638 0)
(-0.00586202 -0.00528495 0)
(-0.00450493 -0.00522215 0)
(-0.00312714 -0.00492199 0)
(-0.00175508 -0.00426601 0)
(-0.000441186 -0.00270508 0)
(-0.000258343 0.00177176 0)
(-0.000988441 0.00287914 0)
(-0.0017423 0.00338743 0)
(-0.00251066 0.00369953 0)
(-0.00328908 0.00389886 0)
(-0.00406954 0.00401644 0)
(-0.00485314 0.00407096 0)
(-0.00563908 0.00407551 0)
(-0.00642436 0.00403967 0)
(-0.0072048 0.00397055 0)
(-0.00797563 0.00387319 0)
(-0.00873179 0.0037509 0)
(-0.0094681 0.00360551 0)
(-0.0101793 0.00343751 0)
(-0.0108602 0.00324629 0)
(-0.0115053 0.00303028 0)
(-0.012109 0.00278716 0)
(-0.0126655 0.00251409 0)
(-0.0131682 0.00220788 0)
(-0.0136104 0.00186522 0)
(-0.0139844 0.00148297 0)
(-0.0142823 0.00105837 0)
(-0.0144952 0.000589411 0)
(-0.0146143 7.52187e-05 0)
(-0.0146302 -0.000483526 0)
(-0.014534 -0.00108419 0)
(-0.0143168 -0.00172148 0)
(-0.013971 -0.00238724 0)
(-0.0134901 -0.00307019 0)
(-0.0128697 -0.00375551 0)
(-0.012108 -0.00442485 0)
(-0.0112062 -0.0050563 0)
(-0.0101691 -0.00562459 0)
(-0.00900567 -0.00610128 0)
(-0.00772822 -0.00645496 0)
(-0.00635154 -0.00665057 0)
(-0.00489553 -0.00664602 0)
(-0.00340347 -0.00638 0)
(-0.00190989 -0.00569763 0)
(-0.000479585 -0.00379974 0)
(-0.000265521 0.0023744 0)
(-0.00101856 0.00365246 0)
(-0.00179738 0.00417703 0)
(-0.00258992 0.00448728 0)
(-0.00338912 0.00468548 0)
(-0.00418567 0.00480402 0)
(-0.00498115 0.00485987 0)
(-0.00577608 0.00486424 0)
(-0.0065689 0.00482533 0)
(-0.0073567 0.00474925 0)
(-0.00813578 0.00464047 0)
(-0.0089019 0.00450197 0)
(-0.00965051 0.0043354 0)
(-0.0103768 0.00414112 0)
(-0.0110759 0.00391837 0)
(-0.0117426 0.00366541 0)
(-0.0123716 0.0033796 0)
(-0.0129569 0.00305771 0)
(-0.0134923 0.00269602 0)
(-0.013971 0.00229064 0)
(-0.0143852 0.00183777 0)
(-0.0147267 0.00133403 0)
(-0.0149863 0.00077685 0)
(-0.0151542 0.000164928 0)
(-0.0152203 -0.000501309 0)
(-0.015174 -0.00121906 0)
(-0.0150047 -0.00198254 0)
(-0.0147023 -0.00278272 0)
(-0.0142574 -0.00360683 0)
(-0.0136623 -0.00443797 0)
(-0.0129117 -0.00525503 0)
(-0.0120031 -0.00603271 0)
(-0.0109381 -0.00674179 0)
(-0.00972279 -0.00734959 0)
(-0.00836825 -0.00782042 0)
(-0.00688973 -0.00811507 0)
(-0.00531124 -0.0081868 0)
(-0.00368561 -0.00796421 0)
(-0.00205821 -0.00724913 0)
(-0.000511763 -0.00497941 0)
(-0.000266521 0.00298784 0)
(-0.0010315 0.0044443 0)
(-0.00182885 0.00498904 0)
(-0.00264223 0.00529702 0)
(-0.00346196 0.00549119 0)
(-0.00427679 0.00560714 0)
(-0.00508785 0.00566128 0)
(-0.0058962 0.00566346 0)
(-0.00670116 0.00562058 0)
(-0.00750083 0.00553777 0)
(-0.00829246 0.00541874 0)
(-0.00907266 0.00526597 0)
(-0.00983761 0.00508077 0)
(-0.0105832 0.00486326 0)
(-0.0113049 0.00461245 0)
(-0.011998 0.00432629 0)
(-0.0126576 0.00400182 0)
(-0.0132781 0.00363529 0)
(-0.0138534 0.00322241 0)
(-0.0143767 0.00275858 0)
(-0.0148403 0.0022392 0)
(-0.0152358 0.00166006 0)
(-0.0155534 0.00101775 0)
(-0.0157826 0.000310186 0)
(-0.0159119 -0.000462835 0)
(-0.0159288 -0.00129889 0)
(-0.0158202 -0.00219229 0)
(-0.0155729 -0.00313363 0)
(-0.0151739 -0.00410917 0)
(-0.0146112 -0.00510031 0)
(-0.0138746 -0.00608335 0)
(-0.0129571 -0.0070294 0)
(-0.011856 -0.00790461 0)
(-0.0105747 -0.00867076 0)
(-0.00912312 -0.00928584 0)
(-0.00751845 -0.00970363 0)
(-0.00579106 -0.00986871 0)
(-0.0040065 -0.00969453 0)
(-0.00222308 -0.00893392 0)
(-0.000545038 -0.00624611 0)
(-0.000264635 0.00360436 0)
(-0.00103522 0.00524787 0)
(-0.00184711 0.0058191 0)
(-0.00267878 0.00612702 0)
(-0.00351844 0.00631667 0)
(-0.00435277 0.00642835 0)
(-0.00518203 0.00647889 0)
(-0.00600728 0.00647746 0)
(-0.0068283 0.00642996 0)
(-0.00764394 0.00634062 0)
(-0.00845224 0.0062124 0)
(-0.00925063 0.00604725 0)
(-0.0100361 0.00584602 0)
(-0.0108051 0.00560852 0)
(-0.011554 0.00533342 0)
(-0.0122786 0.00501834 0)
(-0.0129744 0.00465988 0)
(-0.0136364 0.00425373 0)
(-0.0142588 0.00379492 0)
(-0.0148352 0.00327798 0)
(-0.0153579 0.00269735 0)
(-0.0158183 0.0020477 0)
(-0.0162063 0.00132443 0)
(-0.0165103 0.000524235 0)
(-0.0167173 -0.000354239 0)
(-0.0168128 -0.00130965 0)
(-0.0167807 -0.00233711 0)
(-0.016604 -0.00342758 0)
(-0.016265 -0.00456706 0)
(-0.015746 -0.00573579 0)
(-0.0150311 -0.00690766 0)
(-0.0141069 -0.0080499 0)
(-0.0129654 -0.00912304 0)
(-0.011606 -0.0100814 0)
(-0.0100376 -0.0108739 0)
(-0.00827987 -0.0114433 0)
(-0.00637167 -0.0117208 0)
(-0.00439422 -0.0115995 0)
(-0.00242109 -0.0107776 0)
(-0.000583437 -0.00761291 0)
(-0.000261422 0.00421971 0)
(-0.00103471 0.00605961 0)
(-0.00185888 0.00666438 0)
(-0.00270714 0.0069758 0)
(-0.00356617 0.00716204 0)
(-0.0044207 0.00726915 0)
(-0.00526996 0.00731531 0)
(-0.00611471 0.00730954 0)
(-0.00695495 0.00725715 0)
(-0.00779001 0.00716167 0)
(-0.00861858 0.00702543 0)
(-0.00943888 0.00684982 0)
(-0.0102486 0.00663529 0)
(-0.0110452 0.00638124 0)
(-0.0118256 0.00608601 0)
(-0.0125864 0.00574682 0)
(-0.0133238 0.00535975 0)
(-0.0140336 0.0049199 0)
(-0.0147104 0.00442146 0)
(-0.0153483 0.003858 0)
(-0.0159401 0.00322273 0)
(-0.0164769 0.00250893 0)
(-0.0169484 0.00171038 0)
(-0.0173423 0.000822034 0)
(-0.017644 -0.000159327 0)
(-0.0178366 -0.00123419 0)
(-0.0179008 -0.0023995 0)
(-0.0178149 -0.00364757 0)
(-0.0175556 -0.00496512 0)
(-0.0170983 -0.00633203 0)
(-0.0164192 -0.00772024 0)
(-0.0154968 -0.00909284 0)
(-0.0143155 -0.0104036 0)
(-0.0128687 -0.0115969 0)
(-0.0111631 -0.0126087 0)
(-0.00922116 -0.013366 0)
(-0.00709188 -0.0137808 0)
(-0.00487578 -0.0137196 0)
(-0.00266629 -0.0128175 0)
(-0.000630131 -0.00910201 0)
(-0.00025783 0.00483223 0)
(-0.00103311 0.00687808 0)
(-0.00186849 0.00752336 0)
(-0.00273241 0.00784242 0)
(-0.00361042 0.00802731 0)
(-0.00448559 0.00813057 0)
(-0.00535608 0.00817239 0)
(-0.00622224 0.00816219 0)
(-0.00708409 0.00810509 0)
(-0.00794129 0.00800413 0)
(-0.0087931 0.0078612 0)
(-0.00963841 0.00767723 0)
(-0.0104757 0.00745228 0)
(-0.0113033 0.00718541 0)
(-0.012119 0.0068746 0)
(-0.0129203 0.00651664 0)
(-0.0137043 0.00610711 0)
(-0.0144676 0.00564041 0)
(-0.0152058 0.00510985 0)
(-0.0159137 0.00450787 0)
(-0.0165844 0.00382626 0)
(-0.0172098 0.00305656 0)
(-0.0177792 0.00219049 0)
(-0.0182798 0.00122062 0)
(-0.0186956 0.000141104 0)
(-0.0190075 -0.00105142 0)
(-0.0191925 -0.00235695 0)
(-0.019224 -0.00377051 0)
(-0.0190717 -0.00528096 0)
(-0.0187026 -0.00686912 0)
(-0.0180826 -0.00850587 0)
(-0.0171792 -0.0101503 0)
(-0.0159656 -0.0117482 0)
(-0.0144262 -0.0132313 0)
(-0.0125627 -0.0145176 0)
(-0.0103993 -0.0155115 0)
(-0.00799715 -0.0160978 0)
(-0.0054818 -0.0161084 0)
(-0.00297404 -0.015103 0)
(-0.000687539 -0.0107435 0)
(-0.00025457 0.00544206 0)
(-0.00103236 0.00770302 0)
(-0.00187872 0.00839541 0)
(-0.00275794 0.00872641 0)
(-0.00365481 0.00891249 0)
(-0.00455091 0.00901327 0)
(-0.00544345 0.00905143 0)
(-0.00633233 0.00903726 0)
(-0.0072175 0.00897598 0)
(-0.00809883 0.0088705 0)
(-0.00897607 0.00872241 0)
(-0.00984876 0.00853234 0)
(-0.0107162 0.00830007 0)
(-0.0115775 0.00802437 0)
(-0.0124315 0.00770291 0)
(-0.0132769 0.00733211 0)
(-0.0141117 0.00690704 0)
(-0.0149337 0.00642139 0)
(-0.0157396 0.00586756 0)
(-0.0165252 0.00523672 0)
(-0.0172849 0.00451906 0)
(-0.018011 0.00370409 0)
(-0.0186935 0.002781 0)
(-0.0193193 0.0017393 0)
(-0.0198716 0.000569603 0)
(-0.0203291 -0.00073558 0)
(-0.0206654 -0.00218081 0)
(-0.0208483 -0.00376563 0)
(-0.0208398 -0.00548307 0)
(-0.0205965 -0.007317 0)
(-0.0200712 -0.00923899 0)
(-0.0192162 -0.011205 0)
(-0.0179886 -0.013152 0)
(-0.0163581 -0.014996 0)
(-0.0143163 -0.0166309 0)
(-0.0118872 -0.0179291 0)
(-0.00914536 -0.0187364 0)
(-0.00625017 -0.0188372 0)
(-0.00335972 -0.0177003 0)
(-0.00075523 -0.012574 0)
(-0.000252048 0.00605019 0)
(-0.00103355 0.00853501 0)
(-0.00189125 0.00928057 0)
(-0.00278591 0.00962767 0)
(-0.00370172 0.00981771 0)
(-0.00461899 0.00991771 0)
(-0.00553411 0.00995329 0)
(-0.00644652 0.00993593 0)
(-0.00735607 0.00987134 0)
(-0.0082628 0.00976249 0)
(-0.00916687 0.00961093 0)
(-0.0100684 0.00941718 0)
(-0.0109676 0.00918086 0)
(-0.0118645 0.00890058 0)
(-0.0127589 0.00857381 0)
(-0.0136508 0.00819665 0)
(-0.0145396 0.00776375 0)
(-0.0154243 0.00726817 0)
(-0.0163032 0.00670135 0)
(-0.0171738 0.00605319 0)
(-0.0180316 0.00531213 0)
(-0.0188706 0.00446542 0)
(-0.0196818 0.00349929 0)
(-0.0204527 0.00239951 0)
(-0.0211663 0.00115209 0)
(-0.0218001 -0.000255987 0)
(-0.0223246 -0.00183527 0)
(-0.0227019 -0.00359275 0)
(-0.0228856 -0.00552838 0)
(-0.0228201 -0.00763219 0)
(-0.0224417 -0.00987964 0)
(-0.021682 -0.0122258 0)
(-0.0204745 -0.0145995 0)
(-0.0187655 -0.0168975 0)
(-0.0165284 -0.018982 0)
(-0.0137808 -0.0206803 0)
(-0.010612 -0.0217815 0)
(-0.00722726 -0.0220028 0)
(-0.00383847 -0.0206975 0)
(-0.000830596 -0.0146365 0)
(-0.000250438 0.00665816 0)
(-0.00103726 0.00937512 0)
(-0.00190711 0.0101794 0)
(-0.00281767 0.0105464 0)
(-0.00375267 0.0107431 0)
(-0.00469132 0.0108442 0)
(-0.00562929 0.0108784 0)
(-0.00656562 0.0108589 0)
(-0.00750003 0.010792 0)
(-0.00843269 0.0106811 0)
(-0.00936414 0.0105278 0)
(-0.0102952 0.0103329 0)
(-0.0112267 0.0100959 0)
(-0.0121598 0.00981544 0)
(-0.0130955 0.009489 0)
(-0.0140351 0.00911249 0)
(-0.0149796 0.00868026 0)
(-0.0159297 0.00818483 0)
(-0.0168856 0.00761683 0)
(-0.0178467 0.00696492 0)
(-0.0188108 0.00621582 0)
(-0.0197739 0.00535432 0)
(-0.0207291 0.00436342 0)
(-0.0216658 0.00322452 0)
(-0.0225679 0.0019181 0)
(-0.0234125 0.000424146 0)
(-0.0241683 -0.00127635 0)
(-0.0247931 -0.00320056 0)
(-0.0252313 -0.00535937 0)
(-0.0254134 -0.00775375 0)
(-0.0252557 -0.0103681 0)
(-0.0246623 -0.0131618 0)
(-0.0235329 -0.0160579 0)
(-0.021777 -0.0189322 0)
(-0.0193352 -0.0216059 0)
(-0.0162077 -0.023843 0)
(-0.0124962 -0.0253481 0)
(-0.00847073 -0.0257376 0)
(-0.00442388 -0.0242102 0)
(-0.000905342 -0.0169764 0)
(-0.000249789 0.00726772 0)
(-0.00104374 0.0102248 0)
(-0.00192683 0.0110926 0)
(-0.00285401 0.0114832 0)
(-0.0038086 0.011689 0)
(-0.00476884 0.0117929 0)
(-0.00572975 0.0118271 0)
(-0.00668999 0.0118063 0)
(-0.00764916 0.0117381 0)
(-0.00860757 0.0116263 0)
(-0.00956612 0.0114731 0)
(-0.0105262 0.0112794 0)
(-0.0114895 0.0110452 0)
(-0.0124582 0.0107691 0)
(-0.0134348 0.0104488 0)
(-0.0144217 0.0100804 0)
(-0.015422 0.00965795 0)
(-0.0164382 0.00917379 0)
(-0.017473 0.00861792 0)
(-0.0185282 0.00797797 0)
(-0.0196046 0.00723904 0)
(-0.0207013 0.00638357 0)
(-0.0218147 0.00539119 0)
(-0.0229371 0.0042386 0)
(-0.0240556 0.00289976 0)
(-0.0251488 0.0013463 0)
(-0.0261856 -0.000452214 0)
(-0.0271206 -0.00252559 0)
(-0.0278903 -0.0049015 0)
(-0.0284111 -0.0075986 0)
(-0.0285752 -0.0106186 0)
(-0.0282518 -0.0139334 0)
(-0.0272933 -0.0174681 0)
(-0.0255518 -0.0210788 0)
(-0.0229116 -0.0245358 0)
(-0.0193337 -0.0275152 0)
(-0.0149255 -0.0295932 0)
(-0.0100481 -0.0302252 0)
(-0.00511993 -0.0283919 0)
(-0.00095989 -0.0196353 0)
(-0.000250085 0.00788069 0)
(-0.00105306 0.0110855 0)
(-0.00195071 0.0120214 0)
(-0.00289543 0.0124385 0)
(-0.00387016 0.0126557 0)
(-0.00485219 0.0127639 0)
(-0.00583594 0.0127991 0)
(-0.00681974 0.012778 0)
(-0.00780307 0.0127093 0)
(-0.00878634 0.0125977 0)
(-0.00977081 0.0124461 0)
(-0.0107584 0.0122559 0)
(-0.0117518 0.0120276 0)
(-0.0127542 0.0117603 0)
(-0.0137693 0.0114521 0)
(-0.0148015 0.0110992 0)
(-0.0158555 0.0106962 0)
(-0.0169363 0.0102353 0)
(-0.0180492 0.0097062 0)
(-0.0191994 0.00909592 0)
(-0.0203912 0.00838833 0)
(-0.0216279 0.00756382 0)
(-0.0229106 0.00659883 0)
(-0.0242368 0.00546535 0)
(-0.0255984 0.00413033 0)
(-0.026979 0.00255555 0)
(-0.0283499 0.000697426 0)
(-0.0296661 -0.00149157 0)
(-0.0308598 -0.0040614 0)
(-0.0318331 -0.00705756 0)
(-0.0324528 -0.0105111 0)
(-0.0325452 -0.014422 0)
(-0.0318982 -0.0187315 0)
(-0.0302796 -0.0232862 0)
(-0.0274757 -0.0277985 0)
(-0.023368 -0.0318216 0)
(-0.018054 -0.0347355 0)
(-0.0120238 -0.0357276 0)
(-0.00590265 -0.0334461 0)
(-0.000953164 -0.0226355 0)
(-0.000251289 0.00849886 0)
(-0.00106526 0.0119591 0)
(-0.00197898 0.0129671 0)
(-0.00294235 0.0134133 0)
(-0.0039379 0.0136435 0)
(-0.00494193 0.0137572 0)
(-0.00594829 0.0137941 0)
(-0.00695499 0.0137732 0)
(-0.00796137 0.0137044 0)
(-0.00896793 0.0135938 0)
(-0.00997627 0.0134449 0)
(-0.0109889 0.0132601 0)
(-0.0120094 0.0130405 0)
(-0.0130419 0.0127862 0)
(-0.0140917 0.0124956 0)
(-0.0151648 0.0121659 0)
(-0.016268 0.0117921 0)
(-0.0174091 0.0113669 0)
(-0.0185963 0.0108802 0)
(-0.0198385 0.010319 0)
(-0.0211446 0.00966659 0)
(-0.0225232 0.00890199 0)
(-0.0239817 0.00799909 0)
(-0.0255247 0.00692555 0)
(-0.027152 0.00564156 0)
(-0.0288554 0.00409835 0)
(-0.0306139 0.00223702 0)
(-0.0323874 -1.20246e-05 0)
(-0.0341084 -0.00272722 0)
(-0.0356702 -0.00599244 0)
(-0.0369151 -0.00988548 0)
(-0.0376214 -0.0144563 0)
(-0.0374932 -0.0196928 0)
(-0.0361769 -0.0254556 0)
(-0.0332982 -0.0314015 0)
(-0.0285795 -0.0369242 0)
(-0.022066 -0.041084 0)
(-0.0144397 -0.0426079 0)
(-0.00669102 -0.0396195 0)
(-0.00080527 -0.025947 0)
(-0.000253393 0.00912405 0)
(-0.00108041 0.0128474 0)
(-0.00201193 0.013931 0)
(-0.00299529 0.0144084 0)
(-0.00401249 0.0146531 0)
(-0.0050388 0.0147729 0)
(-0.00606746 0.0148117 0)
(-0.00709612 0.0147908 0)
(-0.00812396 0.0147219 0)
(-0.00915157 0.0146123 0)
(-0.0101808 0.0144667 0)
(-0.0112149 0.0142886 0)
(-0.012258 0.0140801 0)
(-0.0133156 0.0138421 0)
(-0.0143943 0.0135744 0)
(-0.0155018 0.0132749 0)
(-0.0166472 0.0129398 0)
(-0.0178409 0.0125627 0)
(-0.0190947 0.0121345 0)
(-0.0204213 0.0116429 0)
(-0.0218352 0.0110716 0)
(-0.0233512 0.0103994 0)
(-0.0249846 0.00959859 0)
(-0.0267494 0.00863389 0)
(-0.0286565 0.0074595 0)
(-0.03071 0.00601662 0)
(-0.0329023 0.0042299 0)
(-0.0352054 0.00200462 0)
(-0.0375607 -0.00077377 0)
(-0.0398632 -0.00423714 0)
(-0.0419381 -0.0085349 0)
(-0.0435182 -0.0137986 0)
(-0.0442125 -0.0201114 0)
(-0.043489 -0.0273999 0)
(-0.0407388 -0.0353031 0)
(-0.0353627 -0.0430044 0)
(-0.0272539 -0.0490246 0)
(-0.0173809 -0.0513113 0)
(-0.007402 -0.0471276 0)
(-0.000401414 -0.0294223 0)
(-0.000256442 0.00975816 0)
(-0.00109878 0.0137524 0)
(-0.0020501 0.0149149 0)
(-0.00305506 0.0154252 0)
(-0.00409497 0.0156849 0)
(-0.00514393 0.0158108 0)
(-0.0061945 0.015851 0)
(-0.00724393 0.0158294 0)
(-0.00829122 0.0157595 0)
(-0.00933699 0.0156503 0)
(-0.0103834 0.0155079 0)
(-0.0114342 0.0153369 0)
(-0.0124943 0.0151407 0)
(-0.0135703 0.0149218 0)
(-0.01467 0.0146812 0)
(-0.0158031 0.0144182 0)
(-0.0169807 0.0141304 0)
(-0.0182159 0.0138132 0)
(-0.019524 0.0134593 0)
(-0.0209223 0.013058 0)
(-0.0224306 0.0125946 0)
(-0.0240713 0.0120492 0)
(-0.0258687 0.0113947 0)
(-0.0278482 0.0105945 0)
(-0.0300348 0.00959899 0)
(-0.0324497 0.00834103 0)
(-0.035105 0.00673023 0)
(-0.0379945 0.00464567 0)
(-0.0410793 0.00192996 0)
(-0.0442764 -0.00161016 0)
(-0.0474151 -0.00620452 0)
(-0.0501989 -0.0121229 0)
(-0.0521491 -0.0196094 0)
(-0.0525135 -0.0287686 0)
(-0.0503084 -0.0392915 0)
(-0.044388 -0.0501377 0)
(-0.0343322 -0.0590872 0)
(-0.0215026 -0.0626384 0)
(-0.00852542 -0.0563574 0)
(0.000244835 -0.0328696 0)
(-0.000260578 0.0104033 0)
(-0.00112084 0.0146765 0)
(-0.00209438 0.0159208 0)
(-0.00312293 0.0164651 0)
(-0.00418691 0.0167398 0)
(-0.00525905 0.016871 0)
(-0.00633112 0.0169112 0)
(-0.00739992 0.0168872 0)
(-0.00846421 0.0168146 0)
(-0.00952465 0.0167042 0)
(-0.0105837 0.0165636 0)
(-0.0116454 0.0163991 0)
(-0.0127155 0.0162157 0)
(-0.0138016 0.0160173 0)
(-0.0149128 0.0158065 0)
(-0.0160601 0.0155848 0)
(-0.0172569 0.0153517 0)
(-0.0185187 0.0151048 0)
(-0.0198642 0.0148394 0)
(-0.021315 0.0145478 0)
(-0.0228969 0.0142185 0)
(-0.0246395 0.0138346 0)
(-0.026577 0.013372 0)
(-0.0287477 0.0127958 0)
(-0.0311929 0.0120559 0)
(-0.0339549 0.0110808 0)
(-0.0370721 0.00976831 0)
(-0.0405708 0.0079756 0)
(-0.044453 0.00550435 0)
(-0.0486702 0.00209278 0)
(-0.0531032 -0.00259319 0)
(-0.0574886 -0.00899025 0)
(-0.0612914 -0.017608 0)
(-0.0635275 -0.0288787 0)
(-0.0626375 -0.0427343 0)
(-0.0567331 -0.0581463 0)
(-0.0449274 -0.0716745 0)
(-0.0294376 -0.0773199 0)
(-0.0130313 -0.0683439 0)
(0.000484337 -0.0371764 0)
(-0.000266051 0.0110619 0)
(-0.00114743 0.0156225 0)
(-0.00214616 0.0169512 0)
(-0.00320081 0.01753 0)
(-0.0042906 0.0178189 0)
(-0.00538664 0.0179536 0)
(-0.00647982 0.0179914 0)
(-0.00756637 0.0179622 0)
(-0.00864481 0.017884 0)
(-0.00971578 0.0177694 0)
(-0.0107819 0.0176282 0)
(-0.0118478 0.0174683 0)
(-0.0129199 0.0172965 0)
(-0.0140063 0.0171185 0)
(-0.0151173 0.016939 0)
(-0.0162654 0.0167615 0)
(-0.0174654 0.016588 0)
(-0.0187353 0.0164193 0)
(-0.0200964 0.0162541 0)
(-0.0215745 0.0160888 0)
(-0.0232004 0.0159167 0)
(-0.0250108 0.0157262 0)
(-0.0270496 0.0154987 0)
(-0.0293677 0.015205 0)
(-0.0320237 0.0147991 0)
(-0.0350828 0.0142108 0)
(-0.0386147 0.013334 0)
(-0.042687 0.0120125 0)
(-0.0473589 0.0100196 0)
(-0.0526636 0.00703784 0)
(-0.0585735 0.00261492 0)
(-0.0649408 -0.00387293 0)
(-0.0712759 -0.0132698 0)
(-0.0763663 -0.0265885 0)
(-0.0781085 -0.0446544 0)
(-0.0734902 -0.0667253 0)
(-0.0615249 -0.0862547 0)
(-0.0454567 -0.0952411 0)
(-0.0255655 -0.0853693 0)
(-0.00106237 -0.0454193 0)
(-0.000273271 0.0117371 0)
(-0.00117978 0.016594 0)
(-0.00220749 0.0180094 0)
(-0.00329139 0.0186223 0)
(-0.00440922 0.0189235 0)
(-0.00553015 0.0190588 0)
(-0.00664401 0.0190905 0)
(-0.00774646 0.0190519 0)
(-0.00883574 0.0189638 0)
(-0.00991247 0.018841 0)
(-0.0109795 0.0186953 0)
(-0.0120419 0.0185366 0)
(-0.0131064 0.0183737 0)
(-0.014182 0.0182142 0)
(-0.0152798 0.0180651 0)
(-0.0164131 0.0179322 0)
(-0.0175979 0.0178207 0)
(-0.0188538 0.0177346 0)
(-0.0202044 0.0176771 0)
(-0.0216782 0.0176499 0)
(-0.0233101 0.0176523 0)
(-0.0251428 0.0176805 0)
(-0.0272277 0.0177243 0)
(-0.0296269 0.0177637 0)
(-0.0324143 0.0177624 0)
(-0.0356769 0.0176592 0)
(-0.0395158 0.0173555 0)
(-0.0440435 0.0166977 0)
(-0.0493908 0.0154522 0)
(-0.0556958 0.0132765 0)
(-0.0630748 0.00964292 0)
(-0.0715541 0.00374028 0)
(-0.0807688 -0.00578078 0)
(-0.0893587 -0.0212031 0)
(-0.0941019 -0.0453962 0)
(-0.091081 -0.0761335 0)
(-0.0814811 -0.101856 0)
(-0.0664029 -0.115448 0)
(-0.0437828 -0.108959 0)
(-0.00584836 -0.0623021 0)
(-0.000282845 0.0124331 0)
(-0.0012197 0.0175954 0)
(-0.0022812 0.0190992 0)
(-0.00339835 0.0197451 0)
(-0.00454698 0.0200555 0)
(-0.005694 0.020187 0)
(-0.00682806 0.0202073 0)
(-0.0079442 0.0201536 0)
(-0.00904041 0.0200497 0)
(-0.0101174 0.0199129 0)
(-0.0111782 0.0197573 0)
(-0.0122283 0.0195948 0)
(-0.013275 0.0194363 0)
(-0.0143275 0.0192915 0)
(-0.0153975 0.0191695 0)
(-0.0164988 0.019079 0)
(-0.017648 0.019028 0)
(-0.0188653 0.0190248 0)
(-0.0201753 0.0190772 0)
(-0.0216081 0.0191929 0)
(-0.023201 0.0193791 0)
(-0.0249997 0.0196407 0)
(-0.0270606 0.0199786 0)
(-0.0294528 0.0203854 0)
(-0.0322603 0.0208399 0)
(-0.0355858 0.0212979 0)
(-0.0395542 0.0216802 0)
(-0.0443154 0.0218562 0)
(-0.050066 0.0216183 0)
(-0.0570281 0.0206321 0)
(-0.0654298 0.0183296 0)
(-0.0754555 0.01364 0)
(-0.0867382 0.00415376 0)
(-0.0963622 -0.0147212 0)
(-0.0993799 -0.0453222 0)
(-0.0964186 -0.0805824 0)
(-0.0900766 -0.113191 0)
(-0.0777166 -0.136172 0)
(-0.055301 -0.137425 0)
(-0.0140396 -0.0934205 0)
(-0.00029562 0.0131551 0)
(-0.00126962 0.0186325 0)
(-0.00237105 0.0202257 0)
(-0.00352644 0.0209021 0)
(-0.00470922 0.0212171 0)
(-0.00588366 0.0213384 0)
(-0.00703717 0.0213403 0)
(-0.0081642 0.021264 0)
(-0.00926267 0.0211367 0)
(-0.0103334 0.0209785 0)
(-0.01138 0.0208059 0)
(-0.0124081 0.020633 0)
(-0.0134255 0.0204726 0)
(-0.0144417 0.0203364 0)
(-0.0154684 0.0202359 0)
(-0.0165194 0.0201822 0)
(-0.0176111 0.0201866 0)
(-0.0187634 0.0202613 0)
(-0.0200006 0.0204192 0)
(-0.0213525 0.0206745 0)
(-0.0228561 0.0210424 0)
(-0.0245573 0.021538 0)
(-0.0265128 0.0221741 0)
(-0.0287926 0.0229585 0)
(-0.031483 0.0238876 0)
(-0.0346907 0.0249403 0)
(-0.0385483 0.0260669 0)
(-0.0432247 0.0271762 0)
(-0.0489425 0.0281132 0)
(-0.0559494 0.0285648 0)
(-0.0645173 0.0279018 0)
(-0.0749821 0.0245399 0)
(-0.0863786 0.0142871 0)
(-0.094378 -0.00928396 0)
(-0.0953829 -0.0459844 0)
(-0.091973 -0.0859085 0)
(-0.0853958 -0.123961 0)
(-0.0729562 -0.155414 0)
(-0.0543666 -0.166817 0)
(-0.0196942 -0.138459 0)
(-0.000312767 0.0139106 0)
(-0.00133285 0.019713 0)
(-0.00248198 0.0213954 0)
(-0.00368169 0.022098 0)
(-0.00490244 0.0224107 0)
(-0.00610552 0.0225134 0)
(-0.00727708 0.0224874 0)
(-0.00841125 0.0223789 0)
(-0.00950608 0.0222187 0)
(-0.0105629 0.02203 0)
(-0.0115859 0.0218317 0)
(-0.0125812 0.0216401 0)
(-0.0135569 0.0214697 0)
(-0.0145228 0.0213342 0)
(-0.0154901 0.021247 0)
(-0.0164721 0.0212214 0)
(-0.0174841 0.0212718 0)
(-0.0185446 0.0214141 0)
(-0.0196761 0.021666 0)
(-0.0209061 0.0220481 0)
(-0.0222686 0.0225834 0)
(-0.0238059 0.0232966 0)
(-0.02557 0.0242127 0)
(-0.0276248 0.0253536 0)
(-0.0300484 0.0267343 0)
(-0.0329374 0.0283569 0)
(-0.0364094 0.0302043 0)
(-0.0406214 0.0322315 0)
(-0.0457608 0.0343312 0)
(-0.0520176 0.0362057 0)
(-0.0596379 0.0370763 0)
(-0.0688067 0.0345373 0)
(-0.0779549 0.0223397 0)
(-0.0824984 -0.00625014 0)
(-0.0810477 -0.0475191 0)
(-0.0775731 -0.0902379 0)
(-0.0719297 -0.131895 0)
(-0.0614059 -0.170069 0)
(-0.0469512 -0.190813 0)
(-0.0177466 -0.180826 0)
(-0.000335895 0.0147092 0)
(-0.00141372 0.0208465 0)
(-0.00262024 0.0226162 0)
(-0.00387145 0.0233382 0)
(-0.0051342 0.0236388 0)
(-0.00636651 0.0237115 0)
(-0.00755351 0.0236456 0)
(-0.0086894 0.0234927 0)
(-0.00977292 0.0232881 0)
(-0.0108063 0.0230581 0)
(-0.0117947 0.022824 0)
(-0.0127451 0.0226039 0)
(-0.0136658 0.0224141 0)
(-0.0145667 0.0222695 0)
(-0.0154583 0.0221851 0)
(-0.0163526 0.0221762 0)
(-0.0172633 0.0222593 0)
(-0.0182064 0.0224536 0)
(-0.0192008 0.022781 0)
(-0.0202698 0.0232676 0)
(-0.021442 0.023943 0)
(-0.0227522 0.0248405 0)
(-0.024243 0.0259946 0)
(-0.0259653 0.027439 0)
(-0.0279797 0.0292029 0)
(-0.0303573 0.0313065 0)
(-0.033181 0.0337565 0)
(-0.0365533 0.0365407 0)
(-0.040577 0.0395695 0)
(-0.0453315 0.0425278 0)
(-0.0508987 0.0443714 0)
(-0.0572338 0.0417324 0)
(-0.0628857 0.0271344 0)
(-0.0643877 -0.00530754 0)
(-0.062239 -0.048778 0)
(-0.0601845 -0.0928265 0)
(-0.0570423 -0.136797 0)
(-0.0502849 -0.179863 0)
(-0.0383812 -0.209757 0)
(-0.0148163 -0.210241 0)
(-0.000367198 0.0155639 0)
(-0.0015179 0.0220455 0)
(-0.00279363 0.0238977 0)
(-0.00410442 0.0246287 0)
(-0.00541283 0.0249034 0)
(-0.00667348 0.024931 0)
(-0.00787107 0.0248098 0)
(-0.00900066 0.024598 0)
(-0.0100624 0.0243353 0)
(-0.0110604 0.0240515 0)
(-0.012001 0.0237702 0)
(-0.0128925 0.0235111 0)
(-0.0137437 0.0232913 0)
(-0.0145642 0.0231267 0)
(-0.0153638 0.0230331 0)
(-0.0161527 0.0230268 0)
(-0.016942 0.0231261 0)
(-0.0177443 0.0233523 0)
(-0.0185738 0.0237306 0)
(-0.0194478 0.0242908 0)
(-0.0203871 0.025068 0)
(-0.0214165 0.0261008 0)
(-0.0225653 0.0274305 0)
(-0.0238666 0.0290972 0)
(-0.0253564 0.0311366 0)
(-0.0270708 0.0335755 0)
(-0.0290448 0.0364277 0)
(-0.0313027 0.0396829 0)
(-0.0338418 0.0432349 0)
(-0.0366591 0.046723 0)
(-0.0394152 0.0487159 0)
(-0.0424035 0.0454504 0)
(-0.044601 0.0290161 0)
(-0.0442604 -0.0052742 0)
(-0.0427809 -0.0492771 0)
(-0.0425286 -0.093825 0)
(-0.0419802 -0.139178 0)
(-0.0386948 -0.186124 0)
(-0.0306462 -0.225582 0)
(-0.0129599 -0.23465 0)
(-0.000409689 0.016492 0)
(-0.00165274 0.0233256 0)
(-0.00301177 0.025251 0)
(-0.00439057 0.0259752 0)
(-0.00574684 0.0262052 0)
(-0.00703208 0.0261678 0)
(-0.00823166 0.025972 0)
(-0.00934283 0.0256836 0)
(-0.0103685 0.0253474 0)
(-0.0113153 0.0249963 0)
(-0.012192 0.0246558 0)
(-0.0130082 0.0243465 0)
(-0.0137738 0.0240858 0)
(-0.014498 0.0238898 0)
(-0.0151893 0.023774 0)
(-0.0158561 0.0237551 0)
(-0.0165063 0.0238519 0)
(-0.017148 0.0240866 0)
(-0.0177899 0.0244863 0)
(-0.0184421 0.0250833 0)
(-0.0191162 0.0259151 0)
(-0.0198253 0.0270235 0)
(-0.0205835 0.0284516 0)
(-0.0214041 0.0302405 0)
(-0.0222964 0.0324234 0)
(-0.0232602 0.03502 0)
(-0.02428 0.0380327 0)
(-0.0253063 0.0414237 0)
(-0.0262467 0.0450477 0)
(-0.0269313 0.048424 0)
(-0.0269858 0.0498288 0)
(-0.0267564 0.0459157 0)
(-0.0260607 0.0288578 0)
(-0.0248077 -0.00521277 0)
(-0.0245778 -0.0483821 0)
(-0.0262634 -0.0927994 0)
(-0.0281632 -0.138924 0)
(-0.0278206 -0.188272 0)
(-0.0248126 -0.236301 0)
(-0.0086906 -0.255097 0)
(-0.000467551 0.0175168 0)
(-0.00182783 0.0247063 0)