# vtk DataFile Version 2.0
tracks
ASCII
DATASET POLYDATA
POINTS 12075 float
-0.0206 0.000999956 1e-05 -0.02058 0.000999959 1e-05 -0.02056 0.000999965 1e-05 -0.02054 0.000999974
1e-05 -0.02052 0.000999985 1e-05 -0.0205 0.001 1e-05 -0.0202034 0.00100022 1e-05
-0.0199069 0.00100067 1e-05 -0.0196103 0.00100132 1e-05 -0.0193137 0.00100219 1e-05 -0.0190172
0.00100326 1e-05 -0.0187132 0.00100467 1e-05 -0.0184093 0.00100589 1e-05 -0.0181054 0.00100711
1e-05 -0.0178015 0.00100832 1e-05 -0.0174976 0.00100954 1e-05 -0.0172058 0.00101083 1e-05
-0.016914 0.00101194 1e-05 -0.0166222 0.00101304 1e-05 -0.0163305 0.00101414 1e-05 -0.0160387
0.00101524 1e-05 -0.0157586 0.00101638 1e-05 -0.0154784 0.00101746 1e-05 -0.0151983 0.00101858
1e-05 -0.0149182 0.00101973 1e-05 -0.0146381 0.00102093 1e-05 -0.0143762 0.0010221 1e-05
-0.0141143 0.00102329 1e-05 -0.0138524 0.0010245 1e-05 -0.0135906 0.00102574 1e-05 -0.0133695
0.00102682 1e-05 -0.0133543 0.00102689 1e-05 -0.0133391 0.00102697 1e-05 -0.0133239 0.00102704
1e-05 -0.0133087 0.00102712 1e-05 -0.0132934 0.0010272 1e-05 -0.0130353 0.00102849 1e-05
-0.0127771 0.00102979 1e-05 -0.0125189 0.00103112 1e-05 -0.0122607 0.00103246 1e-05 -0.0120025
0.00103381 1e-05 -0.0117547 0.00103513 1e-05 -0.0115068 0.00103645 1e-05 -0.0112589 0.00103778
1e-05 -0.0110111 0.00103911 1e-05 -0.0107632 0.00104044 1e-05 -0.0105252 0.00104173 1e-05
-0.0102873 0.00104301 1e-05 -0.0100493 0.0010443 1e-05 -0.00981133 0.00104559 1e-05 -0.00957337
0.00104687 1e-05 -0.00934491 0.0010481 1e-05 -0.00911645 0.00104933 1e-05 -0.008888 0.00105056
1e-05 -0.00865954 0.00105179 1e-05 -0.00843108 0.00105302 1e-05 -0.00821175 0.00105419 1e-05
-0.00799242 0.00105536 1e-05 -0.00777309 0.00105652 1e-05 -0.00755376 0.00105769 1e-05 -0.00733443
0.00105885 1e-05 -0.00712387 0.00105996 1e-05 -0.0069133 0.00106106 1e-05 -0.00670273 0.00106217
1e-05 -0.00649216 0.00106327 1e-05 -0.0062816 0.00106437 1e-05 -0.00607944 0.00106542 1e-05
-0.00587729 0.00106647 1e-05 -0.00567514 0.00106751 1e-05 -0.00547298 0.00106856 1e-05 -0.00527083
0.0010696 1e-05 -0.00507675 0.00107059 1e-05 -0.00488267 0.00107159 1e-05 -0.0046886 0.00107258
1e-05 -0.00449452 0.00107358 1e-05 -0.00430044 0.00107457 1e-05 -0.00411412 0.00107552 1e-05
-0.0039278 0.00107647 1e-05 -0.00374147 0.00107743 1e-05 -0.00355515 0.00107838 1e-05 -0.00336883
0.00107934 1e-05 -0.00318995 0.00108025 1e-05 -0.00301107 0.00108118 1e-05 -0.00283219 0.0010821
1e-05 -0.00265331 0.00108304 1e-05 -0.00247443 0.00108397 1e-05 -0.0023027 0.00108487 1e-05
-0.00213097 0.00108579 1e-05 -0.00195924 0.00108671 1e-05 -0.00178751 0.00108764 1e-05 -0.00161577
0.00108859 1e-05 -0.0014509 0.0010895 1e-05 -0.00128603 0.00109043 1e-05 -0.00112116 0.00109138
1e-05 -0.00095629 0.00109235 1e-05 -0.000791418 0.00109335 1e-05 -0.000633135 0.00109432 1e-05
-0.000474851 0.00109533 1e-05 -0.000316568 0.00109636 1e-05 -0.000158285 0.00109743 1e-05 0
0.00109852 1e-05 0.000105677 0.00109926 1e-05 0.000211355 0.00110002 1e-05 0.000317032 0.00110078
1e-05 0.000422709 0.00110154 1e-05 0.000528387 0.00110231 1e-05 0.000634886 0.00110309 1e-05
0.000741385 0.00110386 1e-05 0.000847885 0.00110462 1e-05 0.000954384 0.00110538 1e-05 0.00106088
0.00110612 1e-05 0.00116821 0.00110686 1e-05 0.00127554 0.00110759 1e-05 0.00138286 0.00110831
1e-05 0.00149019 0.00110901 1e-05 0.00159752 0.00110969 1e-05 0.00170568 0.00111036 1e-05
0.00181384 0.00111102 1e-05 0.001922 0.00111167 1e-05 0.00203016 0.00111229 1e-05 0.00213833
0.00111291 1e-05 0.00224733 0.0011135 1e-05 0.00235633 0.00111409 1e-05 0.00246533 0.00111466
1e-05 0.00257434 0.00111522 1e-05 0.00268334 0.00111577 1e-05 0.00279319 0.00111629 1e-05
0.00290304 0.00111681 1e-05 0.00301289 0.00111732 1e-05 0.00312274 0.00111781 1e-05 0.00323259
0.00111829 1e-05 0.00334329 0.00111875 1e-05 0.003454 0.00111921 1e-05 0.0035647 0.00111965
1e-05 0.0036754 0.00112008 1e-05 0.00378611 0.00112049 1e-05 0.00389767 0.00112089 1e-05
0.00400924 0.00112128 1e-05 0.0041208 0.00112166 1e-05 0.00423237 0.00112202 1e-05 0.00434393
0.00112237 1e-05 0.00445636 0.00112271 1e-05 0.00456879 0.00112304 1e-05 0.00468123 0.00112335
1e-05 0.00479366 0.00112366 1e-05 0.00490609 0.00112395 1e-05 0.0050194 0.00112422 1e-05
0.0051327 0.00112449 1e-05 0.00524601 0.00112474 1e-05 0.00535932 0.00112498 1e-05 0.00547262
0.00112521 1e-05 0.00558681 0.00112543 1e-05 0.005701 0.00112564 1e-05 0.00581518 0.00112583
1e-05 0.00592937 0.00112602 1e-05 0.00604356 0.00112619 1e-05 0.00615863 0.00112634 1e-05
0.00627371 0.00112649 1e-05 0.00638878 0.00112663 1e-05 0.00650386 0.00112676 1e-05 0.00661893
0.00112688 1e-05 0.0067349 0.00112698 1e-05 0.00685087 0.00112707 1e-05 0.00696684 0.00112716
1e-05 0.00708281 0.00112723 1e-05 0.00719878 0.00112729 1e-05 0.00731565 0.00112734 1e-05
0.00743252 0.00112738 1e-05 0.00754939 0.00112741 1e-05 0.00766626 0.00112743 1e-05 0.00778313
0.00112744 1e-05 0.00790091 0.00112743 1e-05 0.00801869 0.00112742 1e-05 0.00813647 0.0011274
1e-05 0.00825425 0.00112736 1e-05 0.00837203 0.00112732 1e-05 0.00844903 0.00112728 1e-05
0.00852603 0.00112724 1e-05 0.00860303 0.0011272 1e-05 0.00868002 0.00112715 1e-05 0.00875377
0.0011271 1e-05 0.00879612 0.00112706 1e-05 0.00883847 0.00112703 1e-05 0.00888082 0.001127
1e-05 0.00892316 0.00112696 1e-05 0.00896551 0.00112692 1e-05 0.00908513 0.00112681 1e-05
0.00920475 0.00112669 1e-05 0.00932437 0.00112656 1e-05 0.00944398 0.00112642 1e-05 0.0095636
0.00112627 1e-05 0.00968415 0.0011261 1e-05 0.0098047 0.00112593 1e-05 0.00992525 0.00112574
1e-05 0.0100458 0.00112555 1e-05 0.0101663 0.00112534 1e-05 0.0102878 0.00112512 1e-05
0.0104093 0.00112489 1e-05 0.0105308 0.00112465 1e-05 0.0106523 0.0011244 1e-05 0.0107738
0.00112413 1e-05 0.0108962 0.00112385 1e-05 0.0110186 0.00112357 1e-05 0.0111411 0.00112327
1e-05 0.0112635 0.00112296 1e-05 0.0113859 0.00112264 1e-05 0.0115093 0.0011223 1e-05
0.0116327 0.00112196 1e-05 0.0117561 0.0011216 1e-05 0.0118795 0.00112124 1e-05 0.0120028
0.00112086 1e-05 0.0121272 0.00112046 1e-05 0.0122515 0.00112006 1e-05 0.0123759 0.00111965
1e-05 0.0125002 0.00111922 1e-05 0.0126245 0.00111878 1e-05 0.0127498 0.00111833 1e-05
0.0128752 0.00111786 1e-05 0.0130005 0.00111739 1e-05 0.0131258 0.0011169 1e-05 0.0132511
0.0011164 1e-05 0.0133774 0.00111589 1e-05 0.0135036 0.00111536 1e-05 0.0136299 0.00111482
1e-05 0.0137562 0.00111427 1e-05 0.0138825 0.00111371 1e-05 0.0140098 0.00111314 1e-05
0.014137 0.00111255 1e-05 0.0142643 0.00111194 1e-05 0.0143915 0.00111133 1e-05 0.0145188
0.0011107 1e-05 0.0146471 0.00111006 1e-05 0.0147753 0.00110941 1e-05 0.0149036 0.00110874
1e-05 0.0150318 0.00110806 1e-05 0.0151601 0.00110736 1e-05 0.0152893 0.00110666 1e-05
0.0154186 0.00110594 1e-05 0.0155478 0.0011052 1e-05 0.0156771 0.00110445 1e-05 0.0158063
0.00110369 1e-05 0.0159366 0.00110292 1e-05 0.0160668 0.00110213 1e-05 0.0161971 0.00110132
1e-05 0.0163273 0.0011005 1e-05 0.0164576 0.00109967 1e-05 0.0165889 0.00109884 1e-05
0.0167201 0.00109797 1e-05 0.0168514 0.00109709 1e-05 0.0169827 0.0010962 1e-05 0.0171139
0.0010953 1e-05 0.0172462 0.00109439 1e-05 0.0173785 0.00109346 1e-05 0.0175108 0.0010925
1e-05 0.0176431 0.00109153 1e-05 0.0177754 0.00109055 1e-05 0.0179087 0.00108957 1e-05
0.018042 0.00108856 1e-05 0.0181753 0.00108752 1e-05 0.0183087 0.00108647 1e-05 0.018442
0.00108542 1e-05 0.0185763 0.00108436 1e-05 0.0187107 0.00108327 1e-05 0.018845 0.00108215
1e-05 0.0189794 0.00108102 1e-05 0.0191137 0.00107988 1e-05 0.0192491 0.00107875 1e-05
0.0193845 0.00107758 1e-05 0.0195199 0.00107637 1e-05 0.0196553 0.00107515 1e-05 0.0197907
0.00107393 1e-05 0.0199272 0.00107272 1e-05 0.0200636 0.00107146 1e-05 0.0202001 0.00107017
1e-05 0.0203365 0.00106886 1e-05 0.020473 0.00106755 1e-05 0.0206105 0.00106625 1e-05
0.020748 0.0010649 1e-05 0.0208855 0.00106352 1e-05 0.021023 0.00106212 1e-05 0.0211606
0.00106073 1e-05 0.0212991 0.00105933 1e-05 0.0214377 0.0010579 1e-05 0.0215763 0.00105642
1e-05 0.0217149 0.00105493 1e-05 0.0218535 0.00105345 1e-05 0.0219931 0.00105196 1e-05
0.0221328 0.00105043 1e-05 0.0222724 0.00104886 1e-05 0.0224121 0.00104727 1e-05 0.0225517
0.00104569 1e-05 0.0226925 0.0010441 1e-05 0.0228332 0.00104247 1e-05 0.022974 0.00104079
1e-05 0.0231147 0.0010391 1e-05 0.0232555 0.00103742 1e-05 0.0233973 0.00103572 1e-05
0.0235391 0.00103399 1e-05 0.023681 0.00103221 1e-05 0.0238228 0.00103042 1e-05 0.0239647
0.00102862 1e-05 0.0241076 0.00102682 1e-05 0.0242505 0.00102498 1e-05 0.0243935 0.00102309
1e-05 0.0245364 0.00102119 1e-05 0.0246794 0.00101928 1e-05 0.0248234 0.00101737 1e-05
0.0249675 0.00101541 1e-05 0.0251115 0.00101341 1e-05 0.0252556 0.0010114 1e-05 0.0253996
0.00100938 1e-05 0.0255448 0.00100735 1e-05 0.02569 0.00100527 1e-05 0.0258351 0.00100316
1e-05 0.0259803 0.00100103 1e-05 0.0261255 0.000998892 1e-05 0.0262718 0.000996733 1e-05
0.0264181 0.000994531 1e-05 0.0265644 0.000992298 1e-05 0.0267107 0.000990044 1e-05 0.026857
0.000987776 1e-05 0.0270044 0.000985486 1e-05 0.0271519 0.000983152 1e-05 0.0272993 0.000980791
1e-05 0.0274467 0.000978409 1e-05 0.0275942 0.000976007 1e-05 0.0277428 0.000973582 1e-05
0.0278914 0.000971112 1e-05 0.0280399 0.00096862 1e-05 0.0281885 0.000966105 1e-05 0.0283371
0.000963567 1e-05 0.0284869 0.000961003 1e-05 0.0286366 0.000958399 1e-05 0.0287863 0.000955771
1e-05 0.0289361 0.000953119 1e-05 0.0290858 0.000950444 1e-05 0.0292367 0.000947736 1e-05
0.0293876 0.000944989 1e-05 0.0295385 0.000942217 1e-05 0.0296894 0.00093942 1e-05 0.0298403
0.000936598 1e-05 0.0299924 0.000933738 1e-05 0.0301445 0.000930841 1e-05 0.0302966 0.000927919
1e-05 0.0304486 0.00092497 1e-05 0.0306007 0.000921996 1e-05 0.030754 0.000918977 1e-05
0.0309072 0.000915926 1e-05 0.0310605 0.000912849 1e-05 0.0312138 0.000909745 1e-05 0.031367
0.000906614 1e-05 0.0313871 0.000906201 1e-05 0.0314072 0.000905787 1e-05 0.0314272 0.000905372
1e-05 0.0314473 0.000904957 1e-05 0.0314672 0.000904545 1e-05 0.0316016 0.000901761 1e-05
[...]
POINT_DATA 12075
FIELD attributes 4
age 1 12075 float
-9.99973e-06 -7.99975e-06 -5.99979e-06 -3.99984e-06 -1.99991e-06 0 2.96554e-05 5.93049e-05 8.89484e-05 0.000118586 0.000148218
0.000178569 0.000208911 0.000239241 0.000269556 0.000299858 0.000328933 0.000357999 0.000387054 0.000416097 0.000445129
0.000472989 0.000500843 0.000528691 0.000556532 0.000584366 0.000610383 0.000636396 0.000662406 0.000688412 0.000710363
0.000711872 0.000713382 0.000714892 0.000716401 0.000717911 0.000743543 0.000769173 0.000794802 0.00082043 0.000846057
0.000870659 0.000895261 0.000919864 0.000944468 0.000969073 0.000992696 0.00101632 0.00103995 0.00106358 0.00108721
0.0011099 0.0011326 0.00115529 0.00117799 0.0012007 0.0012225 0.0012443 0.00126611 0.00128792 0.00130974
0.00133069 0.00135165 0.0013726 0.00139357 0.00141453 0.00143467 0.00145481 0.00147495 0.0014951 0.00151525
0.00153461 0.00155396 0.00157332 0.00159269 0.00161206 0.00163067 0.00164927 0.00166788 0.0016865 0.00170512
0.00172301 0.00174089 0.00175878 0.00177668 0.00179458 0.00181178 0.00182897 0.00184617 0.00186337 0.00188058
0.00189711 0.00191364 0.00193017 0.0019467 0.00196324 0.00197914 0.00199502 0.0020109 0.00202679 0.00204267
0.00205329 0.0020639 0.0020745 0.00208511 0.00209571 0.00210641 0.0021171 0.00212779 0.00213848 0.00214916
0.00215995 0.00217072 0.00218149 0.00219226 0.00220304 0.00221391 0.00222477 0.00223563 0.00224649 0.00225736
0.00226832 0.00227928 0.00229023 0.00230119 0.00231215 0.00232322 0.00233427 0.00234532 0.00235638 0.00236745
0.00237861 0.00238977 0.00240092 0.00241209 0.00242326 0.00243453 0.00244579 0.00245706 0.00246833 0.00247961
0.002491 0.00250238 0.00251376 0.00252515 0.00253654 0.00254805 0.00255954 0.00257104 0.00258255 0.00259407
0.0026057 0.00261731 0.00262894 0.00264058 0.00265222 0.00266398 0.00267573 0.00268749 0.00269925 0.00271103
0.00272292 0.00273481 0.0027467 0.00275861 0.00277052 0.00278255 0.00279458 0.00280662 0.00281867 0.00283073
0.0028429 0.00285508 0.00286727 0.00287947 0.00289168 0.00289967 0.00290767 0.00291567 0.00292368 0.00293135
0.00293576 0.00294017 0.00294459 0.002949 0.00295342 0.0029659 0.00297839 0.0029909 0.00300342 0.00301595
0.00302861 0.00304127 0.00305394 0.00306663 0.00307933 0.00309217 0.003105 0.00311785 0.00313071 0.00314359
0.00315661 0.00316962 0.00318265 0.00319569 0.00320875 0.00322196 0.00323516 0.00324837 0.0032616 0.00327485
0.00328825 0.00330164 0.00331504 0.00332846 0.0033419 0.0033555 0.00336908 0.00338268 0.0033963 0.00340994
0.00342374 0.00343752 0.00345132 0.00346513 0.00347897 0.00349297 0.00350696 0.00352096 0.00353498 0.00354903
0.00356324 0.00357743 0.00359164 0.00360587 0.00362013 0.00363455 0.00364896 0.00366338 0.00367783 0.0036923
0.00370694 0.00372157 0.0037362 0.00375086 0.00376555 0.00378041 0.00379526 0.00381012 0.00382499 0.00383991
0.00385498 0.00387005 0.00388513 0.00390023 0.00391537 0.00393067 0.00394597 0.00396127 0.00397659 0.00399196
0.00400748 0.00402301 0.00403854 0.00405409 0.00406968 0.00408543 0.00410119 0.00411695 0.00413273 0.00414855
0.00416453 0.00418052 0.00419651 0.00421253 0.00422858 0.00424479 0.00426102 0.00427724 0.00429349 0.00430978
0.00432623 0.00434269 0.00435915 0.00437564 0.00439216 0.00440885 0.00442554 0.00444225 0.00445897 0.00447573
0.00449266 0.0045096 0.00452654 0.00454351 0.00456051 0.00457767 0.00459485 0.00461204 0.00462925 0.00464649
0.0046639 0.00468133 0.00469876 0.00471622 0.00473371 0.00475136 0.00476903 0.00478672 0.00480442 0.00482216
0.00484006 0.00485798 0.00487592 0.00489388 0.00491186 0.00493002 0.00494819 0.00496638 0.00498459 0.00500283
0.00502124 0.00503967 0.00505812 0.00507659 0.00509508 0.00511375 0.00513244 0.00515115 0.00516988 0.00518864
0.00520757 0.00522652 0.00524549 0.00526449 0.00528351 0.0053027 0.00532192 0.00534116 0.00536043 0.00537972
0.00539918 0.00541867 0.00543818 0.00545772 0.00547728 0.00549702 0.00551679 0.00553657 0.00555639 0.00557623
0.00557883 0.00558143 0.00558404 0.00558664 0.00558922 0.00560666 0.00562411 0.00564159 0.00565908 0.0056766
0.00569691 0.00571724 0.0057376 0.00575799 0.00577841 0.00579901 0.00581964 0.00584029 0.00586098 0.00588169
0.00590259 0.00592352 0.00594448 0.00596547 0.00598649 0.00600769 0.00602893 0.0060502 0.0060715 0.00609283
0.00611434 0.00613589 0.00615748 0.00617909 0.00620074 0.00622257 0.00624444 0.00626635 0.0062883 0.00631027
0.00633243 0.00635463 0.00637687 0.00639914 0.00642144 0.00644394 0.00646648 0.00648906 0.00651167 0.00653431
0.00655715 0.00658004 0.00660296 0.00662592 0.00664891 0.00667211 0.00669535 0.00671863 0.00674195 0.0067653
0.00678885 0.00681245 0.0068361 0.00685979 0.0068835 0.00690743 0.00693141 0.00695543 0.00697948 0.00700358
0.00702789 0.00705225 0.00707665 0.00710109 0.00712557 0.00715027 0.00717502 0.00719982 0.00722465 0.00724953
0.00727463 0.00729979 0.00732499 0.00735023 0.00737551 0.00740103 0.00742659 0.00745221 0.00747786 0.00750356
0.00750911 0.00751465 0.0075202 0.00752575 0.00753126 0.00755171 0.00757218 0.00759269 0.00761322 0.00763378
0.00766016 0.00768658 0.00771306 0.00773958 0.00776615 0.00779297 0.00781984 0.00784676 0.00787373 0.00790076
0.00792802 0.00795535 0.00798273 0.00801016 0.00803764 0.00806536 0.00809314 0.00812099 0.00814888 0.00817682
0.008205 0.00823325 0.00826157 0.00828993 0.00831833 0.00834699 0.00837571 0.00840449 0.00843333 0.0084622
0.00849132 0.00852051 0.00854977 0.00857908 0.00860842 0.00863802 0.00866768 0.00869742 0.0087272 0.00875701
0.00878708 0.00881722 0.00884742 0.00887766 0.00890794 0.00893848 0.00896909 0.00899976 0.00903046 0.0090612
0.00909221 0.00912329 0.00915441 0.00918557 0.00921676 0.00924824 0.00927976 0.00931133 0.00934294 0.00937458
0.0094065 0.00943847 0.00947047 0.00950251 0.00953459 0.00954285 0.00955112 0.00955938 0.00956765 0.00957604
0.00960015 0.00962428 0.00964843 0.0096726 0.00969678 0.00972957 0.00976239 0.00979524 0.00982812 0.00986104
0.00989423 0.00992746 0.00996071 0.009994 0.0100273 0.0100609 0.0100945 0.0101282 0.0101618 0.0101955
0.0102295 0.0102635 0.0102975 0.0103315 0.0103656 0.0103999 0.0104343 0.0104686 0.010503 0.0105374
0.0105721 0.0106068 0.0106415 0.0106762 0.0107109 0.0107459 0.0107809 0.010816 0.010851 0.010886
0.0109213 0.0109566 0.010992 0.0110273 0.0110626 0.0110982 0.0111338 0.0111694 0.0112051 0.0112407
0.0112765 0.0113124 0.0113483 0.0113842 0.0114201 0.0114562 0.0114924 0.0115285 0.0115647 0.0116008
0.0116372 0.0116736 0.01171 0.0117464 0.0117828 0.0118194 0.0118561 0.0118927 0.0119294 0.011966
0.0120029 0.0120398 0.0120767 0.0121136 0.0121504 0.0121876 0.0122247 0.0122618 0.0122989 0.012336
0.0123734 0.0124108 0.0124482 0.0124855 0.0125229 0.0125605 0.0125981 0.0126357 0.0126733 0.0127109
0.0127488 0.0127866 0.0128245 0.0128623 0.0129002 0.0129383 0.0129764 0.0130145 0.0130526 0.0130907
0.013107 0.0131233 0.0131396 0.0131559 0.0131707 0.0131931 0.0132155 0.0132378 0.0132602 0.0132826
0.0133213 0.0133599 0.0133986 0.0134372 0.0134759 0.0135148 0.0135538 0.0135927 0.0136317 0.0136706
0.0137099 0.0137491 0.0137884 0.0138276 0.0138669 0.0139065 0.0139461 0.0139857 0.0140253 0.0140649
0.0141049 0.0141448 0.0141848 0.0142247 0.0142647 0.0143051 0.0143454 0.0143858 0.0144261 0.0144665
0.0145073 0.0145481 0.0145888 0.0146296 0.0146705 0.0147117 0.014753 0.0147942 0.0148355 0.0148769
0.0149083 0.0149398 0.0149712 0.0150028 0.0150296 0.0150408 0.0150521 0.0150633 0.0150746 0.0150858
0.0151281 0.0151704 0.0152127 0.0152551 0.0152976 0.0153405 0.0153834 0.0154263 0.0154693 0.0155124
0.015556 0.0155995 0.0156431 0.0156868 0.0157307 0.0157749 0.0158192 0.0158636 0.015908 0.0159527
0.0159797 0.0160068 0.0160339 0.016061 0.0160854 0.0161041 0.0161228 0.0161415 0.0161603 0.016179
0.016225 0.016271 0.0163171 0.0163633 0.0164098 0.0164567 0.0165037 0.0165508 0.0165981 0.0166456
0.0166936 0.0167417 0.01679 0.0168384 0.0168871 0.0168916 0.0168961 0.0169005 0.016905 0.0169094
0.0169542 0.0169992 0.0170442 0.0170894 0.0171349 0.0171855 0.0172362 0.017287 0.017338 0.0173896
0.0174388 0.0174882 0.0175377 0.0175874 0.0176309 0.0176351 0.0176394 0.0176436 0.0176479 0.0176521
0.0177058 0.0177597 0.0178138 0.0178682 0.0179232 0.0179787 0.0180345 0.0180905 0.0181468 0.0182038
0.0182238 0.0182438 0.0182638 0.0182839 0.0183032 0.0183414 0.0183797 0.0184182 0.0184568 0.0184957
0.0185556 0.0186158 0.0186764 0.0187373 0.0187991 0.0188308 0.0188626 0.0188944 0.0189264 0.0189567
0.0189884 0.0190203 0.0190523 0.0190843 0.0191167 0.019182 0.0192478 0.019314 0.0193807 0.0194485
0.0194814 0.0195143 0.0195474 0.0195806 0.0196124 0.0196492 0.0196861 0.0197232 0.0197604 0.0197979
0.0198701 0.0199427 0.020016 0.0200898 0.020165 0.0201896 0.0202141 0.0202388 0.0202635 0.0202876
0.0203401 0.020393 0.0204461 0.0204995 0.0205536 0.0206341 0.0207152 0.0207971 0.0208797 0.020964
0.0209708 0.0209777 0.0209846 0.0209915 0.0209983 0.0210771 0.0211565 0.0212366 0.0213173 0.0213995
0.0214714 0.0215439 0.0216169 0.0216905 0.0217616 0.0217817 0.0218018 0.021822 0.0218422 0.0218625
0.0219586 0.0220556 0.0221536 0.0222526 0.0223532 0.0224017 0.0224504 0.0224993 0.0225484 0.022597
0.0226521 0.0227075 0.0227632 0.0228191 0.0228755 0.0229838 0.0230932 0.0232037 0.0233153 0.0234284
0.0234342 0.02344 0.0234459 0.0234517 0.0234576 0.0235668 0.0236772 0.0237885 0.0239009 0.0240143
0.0240871 0.0241604 0.0242342 0.0243083 0.0243835 0.0244333 0.0244832 0.0245333 0.0245837 0.024634
0.024762 0.0248911 0.0250214 0.0251529 0.0252847 0.0253067 0.0253287 0.0253508 0.0253729 0.0253952
0.0255082 0.025622 0.0257365 0.0258519 0.025967 0.0260748 0.0261832 0.0262924 0.0264021 0.0265183
0.0265502 0.0265821 0.026614 0.026646 0.0266779 0.0268236 0.0269702 0.0271178 0.0272663 0.0274137
0.0274876 0.0275617 0.0276359 0.0277104 0.027789 0.0278654 0.027942 0.0280188 0.0280958 0.0281723
0.0283266 0.0284816 0.0286372 0.0287935 0.028948 0.0290094 0.0290709 0.0291325 0.0291941 0.0292592
0.0293548 0.0294506 0.0295465 0.0296426 0.0297379 0.0298975 0.0300575 0.0302178 0.0303783 0.0305369
0.0306298 0.0307227 0.0308157 0.0309087 0.0310112 0.0310773 0.0311435 0.0312097 0.0312759 0.0313417
0.0315035 0.0316653 0.0318271 0.0319888 0.0321487 0.0323106 0.0324723 0.032634 0.0327954 0.0329551
0.0330015 0.0330479 0.0330942 0.0331406 0.0331896 0.0333037 0.0334177 0.0335315 0.0336452 0.0337581
0.0339187 0.0340789 0.0342388 0.0343983 0.0345564 0.0347158 0.0348749 0.0350335 0.0351917 0.0353485
0.0354912 0.0356334 0.0357753 0.0359168 0.0360863 0.0360957 0.0361052 0.0361146 0.0361241 0.0361335
0.0362901 0.0364462 0.0366018 0.0367569 0.0369109 0.0370659 0.0372204 0.0373743 0.0375278 0.0376803
0.0378337 0.0379865 0.0381389 0.0382907 0.0384416 0.0385934 0.0387447 0.0388955 0.0390457 0.0391952
0.0393455 0.0394952 0.0396445 0.0397932 0.0399412 0.0400398 0.0401382 0.0402364 0.0403344 0.0404459
0.0404927 0.0405395 0.0405862 0.0406329 0.0406795 0.0408268 0.0409737 0.0411201 0.0412661 0.0414114
0.0415574 0.041703 0.0418481 0.0419928 0.0421369 0.0422817 0.0424261 0.04257 0.0427134 0.0428564
0.0430001 0.0431433 0.0432861 0.0434285 0.0435704 0.0437131 0.0438553 0.0439971 0.0441385 0.0442794
0.0444211 0.0445624 0.0447033 0.0448438 0.0449839 0.0451247 0.0452651 0.0454052 0.0455449 0.0456842
0.0458243 0.0459639 0.0461033 0.0462422 0.0463808 0.0465202 0.0466592 0.0467979 0.0469363 0.0470742
0.047213 0.0473514 0.0474896 0.0476273 0.0477648 0.047903 0.048041 0.0481786 0.0483159 0.0484529
0.0485907 0.0487282 0.0488654 0.0490024 0.049139 0.0492112 0.0492834 0.0493555 0.0494275 0.049508
0.0495711 0.0496342 0.0496972 0.0497602 0.0498231 0.0499603 0.0500972 0.0502338 0.0503702 0.0505063
0.0506433 0.05078 0.0509165 0.0510527 0.0511887 0.0513256 0.0514622 0.0515986 0.0517348 0.0518708
0.0520077 0.0521443 0.0522808 0.052417 0.0525531 0.0526901 0.0528268 0.0529634 0.0530999 0.0532361
0.0533734 0.0535104 0.0536473 0.053784 0.0539205 0.054058 0.0541953 0.0543324 0.0544694 0.0546063
0.0547441 0.0548817 0.055019 0.055156 0.0552927 0.0554248 0.0555564 0.0556877 0.0558186 0.0559491
0.0560842 0.0562185 0.0563521 0.056485 0.0566175 0.0567544 0.0568906 0.057026 0.0571607 0.0572949
0.0574337 0.0575718 0.0577091 0.0578458 0.057982 0.0581229 0.058263 0.0584024 0.0585411 0.0586792
0.058822 0.0589641 0.0591054 0.059246 0.059386 0.0595307 0.0596747 0.0598178 0.0599602 0.060102
0.0602486 0.0603944 0.0605393 0.0606836 0.0608271 0.0609755 0.061123 0.0612697 0.0614157 0.0615609
0.061711 0.0618603 0.0620087 0.0621563 0.0623031 0.0624549 0.0626058 0.0627558 0.062905 0.0630534
0.0632067 0.0633591 0.0635106 0.0636613 0.0638111 0.0639659 0.0641198 0.0642727 0.0644247 0.0645759
0.0646829 0.0647895 0.0648956 0.0650013 0.0651209 0.0651661 0.0652113 0.0652563 0.0653013 0.0653462
0.0655035 0.0656599 0.0658153 0.0659697 0.0661232 0.0662817 0.0664391 0.0665956 0.066751 0.0669054
0.0670649 0.0672233 0.0673806 0.0675368 0.067692 0.0678524 0.0680115 0.0681695 0.0683264 0.0684823
0.0686433 0.0688029 0.0689615 0.0691189 0.0692752 0.0694367 0.0695968 0.0697557 0.0699135 0.0700701
0.0702318 0.0703921 0.070551 0.0707088 0.0708655 0.0710274 0.0711879 0.071347 0.0715048 0.0716614
0.0718227 0.0719823 0.0721404 0.0722972 0.0724532 0.0726147 0.0727749 0.072934 0.0730913 0.0732463
0.073405 0.0735609 0.0737141 0.0738662 0.0740184 -9.99997e-06 -7.99997e-06 -5.99998e-06 -3.99998e-06 -1.99999e-06
0 2.96566e-05 5.93127e-05 8.89677e-05 0.000118621 0.000148273 0.000178657 0.000209038 0.000239415 0.000269789
0.000300159 0.00032931 0.000358456 0.000387598 0.000416734 0.000445866 0.000473828 0.000501786 0.000529738 0.000557686
0.00058563 0.000612452 0.00063927 0.000666084 0.000692894 0.0007197 0.000745431 0.000771157 0.00079688 0.000822599
0.000848315 0.000872999 0.000897679 0.000922356 0.00094703 0.0009717 0.00099538 0.00101906 0.00104273 0.0010664
0.00109007 0.00111279 0.00113551 0.00115822 0.00118094 0.00120365 0.00122544 0.00124724 0.00126904 0.00129083
0.00131262 0.00133353 0.00135445 0.00137536 0.00139627 0.00141718 0.00143725 0.00145732 0.00147738 0.00149745
0.00151751 0.00153677 0.00155602 0.00157528 0.00159453 0.00161378 0.00163226 0.00165074 0.00166922 0.0016877
0.00170617 0.0017239 0.00174164 0.00175937 0.0017771 0.00179482 0.00181184 0.00182886 0.00184587 0.00186288
0.00187989 0.00189622 0.00191255 0.00192888 0.0019452 0.00196152 0.00197719 0.00199286 0.00200852 0.00202419
0.00203985 0.0020503 0.00206076 0.00207121 0.00208166 0.00209211 0.00210264 0.00211318 0.00212371 0.00213423
0.00214476 0.00215537 0.00216598 0.00217659 0.00218719 0.0021978 0.00220849 0.00221917 0.00222986 0.00224054
0.00225123 0.00226199 0.00227276 0.00228352 0.00229428 0.00230505 0.00231589 0.00232674 0.00233758 0.00234843
0.00235927 0.0023702 0.00238112 0.00239205 0.00240297 0.0024139 0.0024249 0.00243591 0.00244692 0.00245793
0.00246893 0.00248002 0.00249112 0.00250221 0.0025133 0.00252439 0.00253556 0.00254674 0.00255791 0.00256908
0.00258026 0.00259152 0.00260278 0.00261404 0.0026253 0.00263656 0.0026479 0.00265925 0.00267059 0.00268194
0.00269328 0.00270471 0.00271615 0.00272758 0.00273901 0.00275044 0.00276196 0.00277348 0.002785 0.00279652
0.00280804 0.00281965 0.00283126 0.00284286 0.00285447 0.00286608 0.00287778 0.00288947 0.00290117 0.00291287
0.00292456 0.00293635 0.00294814 0.00295992 0.00297171 0.0029835 0.00299537 0.00300725 0.00301913 0.00303101
0.00304288 0.00305485 0.00306682 0.00307879 0.00309076 0.00310273 0.00311479 0.00312685 0.00313891 0.00315097
0.00316303 0.00317518 0.00318734 0.00319949 0.00321164 0.00322379 0.00323604 0.00324829 0.00326053 0.00327278
0.00328502 0.00329737 0.00330971 0.00332205 0.00333439 0.00334673 0.00335916 0.0033716 0.00338403 0.00339646
0.0034089 0.00342143 0.00343396 0.00344649 0.00345902 0.00347155 0.00348418 0.0034968 0.00350943 0.00352205
0.00353468 0.0035474 0.00356013 0.00357285 0.00358557 0.00359829 0.00361111 0.00362393 0.00363675 0.00364957
0.00366239 0.00367531 0.00368823 0.00370115 0.00371406 0.00372698 0.00374 0.00375302 0.00376603 0.00377905
0.00379207 0.00379399 0.0037959 0.00379782 0.00379974 0.00380166 0.00381286 0.00382406 0.00383525 0.00384645
0.00385765 0.00387086 0.00388408 0.0038973 0.00391052 0.00392373 0.00393705 0.00395037 0.00396369 0.003977
0.00399032 0.00400374 0.00401716 0.00403058 0.004044 0.00405742 0.00407095 0.00408447 0.00409799 0.00411152
0.00412504 0.00413867 0.0041523 0.00416592 0.00417955 0.00419318 0.00420691 0.00422064 0.00423437 0.00424811
0.00426184 0.00427568 0.00428952 0.00430335 0.00431719 0.00433103 0.00434498 0.00435892 0.00437287 0.00438681
0.00440076 0.00441481 0.00442887 0.00444292 0.00445697 0.00447103 0.00448519 0.00449935 0.00451352 0.00452768
0.00454184 0.00455612 0.00457039 0.00458467 0.00459894 0.00461321 0.0046276 0.00464199 0.00465637 0.00467076
0.00468514 0.00469965 0.00471415 0.00472865 0.00474314 0.00475764 0.00477226 0.00478688 0.00480149 0.0048161
0.00483072 0.00484545 0.00486019 0.00487491 0.00488964 0.00490438 0.00491923 0.00493408 0.00494893 0.00496377
0.00497863 0.0049936 0.00500857 0.00502353 0.0050385 0.00505348 0.00506857 0.00508366 0.00509875 0.00511384
0.00512893 0.00514415 0.00515936 0.00517458 0.00518979 0.00520501 0.00522035 0.00523569 0.00525103 0.00526637
0.00528172 0.00529719 0.00531265 0.00532812 0.00534359 0.00535906 0.00537466 0.00539026 0.00540586 0.00542146
0.00543706 0.00545279 0.00546852 0.00548426 0.00549999 0.00551573 0.00553159 0.00554746 0.00556333 0.0055792
0.00559507 0.00561107 0.00562708 0.00564308 0.00565909 0.00567511 0.00568733 0.00569956 0.0057118 0.00572403
0.00573612 0.00574007 0.00574401 0.00574796 0.0057519 0.00575585 0.00577214 0.00578843 0.00580472 0.00582102
0.00583732 0.00585376 0.0058702 0.00588664 0.00590309 0.00591954 0.00593614 0.00595273 0.00596932 0.00598592
0.00600252 0.00601929 0.00603603 0.00605279 0.00606954 0.0060863 0.00610324 0.00612014 0.00613705 0.00615397
0.0061709 0.00618801 0.00620509 0.00622217 0.00623925 0.00625636 0.00627364 0.0062909 0.00630815 0.0063254
0.00634269 0.00636016 0.0063776 0.00639502 0.00641246 0.00642993 0.00644759 0.00646522 0.00648283 0.00650045
0.00651812 0.00653597 0.0065538 0.00657161 0.00658942 0.00660729 0.00662535 0.00664338 0.00666139 0.00667941
0.00669749 0.00671575 0.006734 0.00675222 0.00677045 0.00678874 0.00680722 0.00682568 0.00684412 0.00686258
0.00688109 0.00689979 0.00691848 0.00693715 0.00695584 0.00697458 0.00699351 0.00701243 0.00703134 0.00705028
0.00706925 0.00708843 0.00710758 0.00712674 0.00714593 0.00716515 0.00718457 0.00720397 0.00722339 0.00724283
0.0072623 0.00728197 0.00730163 0.00732132 0.00734102 0.00736076 0.00738069 0.00740062 0.00742058 0.00744056
0.00746056 0.00748077 0.00750097 0.00752121 0.00754147 0.00756175 0.00758223 0.00760273 0.00762325 0.00764379
0.00766436 0.00767131 0.00767825 0.0076852 0.00769215 0.00769912 0.00771296 0.00772682 0.00774068 0.00775456
0.00776846 0.00778951 0.0078106 0.00783171 0.00785285 0.00787401 0.00789538 0.00791677 0.00793819 0.00795963
0.0079811 0.00800278 0.00802448 0.0080462 0.00806796 0.00808974 0.00811174 0.00813375 0.00815579 0.00817786
0.00819996 0.00822227 0.0082446 0.00826696 0.00828935 0.00831177 0.0083344 0.00835706 0.00837974 0.00840245
0.00842519 0.00844815 0.00847113 0.00849413 0.00851716 0.00854022 0.00856351 0.00858681 0.00861014 0.00863349
0.00865688 0.00868049 0.00870411 0.00872776 0.00875144 0.00877515 0.00879908 0.00882304 0.00884701 0.00887101
0.00889504 0.0089193 0.00894357 0.00896787 0.00899219 0.00901654 0.00904111 0.00906571 0.00909032 0.00911496
0.00913963 0.00916452 0.00918944 0.00921437 0.00923932 0.00926431 0.00928951 0.00931474 0.00933998 0.00936525
0.00939054 0.00941606 0.00944159 0.00946715 0.00949273 0.00951833 0.00954415 0.00957 0.00959586 0.00962174
0.00964765 0.00967378 0.00969993 0.0097261 0.00975229 0.0097785 0.00980493 0.00983139 0.00985786 0.00988435
0.00991087 0.00993399 0.00995712 0.00998027 0.0100034 0.0100243 0.0100284 0.0100325 0.0100366 0.0100407
0.0100448 0.0100718 0.0100989 0.0101259 0.010153 0.0101802 0.0102075 0.0102349 0.0102623 0.0102897
0.0103171 0.0103447 0.0103724 0.0104001 0.0104278 0.0104556 0.0104835 0.0105115 0.0105395 0.0105675