/*--------------------------------*- C++ -*----------------------------------*\
  =========                 |
  \\      /  F ield         | OpenFOAM: The Open Source CFD Toolbox
   \\    /   O peration     | Website:  https://openfoam.org
    \\  /    A nd           | Version:  12
     \\/     M anipulation  |
\*---------------------------------------------------------------------------*/
FoamFile
{
    format      ascii;
    class       volScalarField;
    location    "0.7";
    object      epsilon;
}
// * * * * * * * * * * * * * * * * * * * * * * * * * * * * * * * * * * * * * //

dimensions      [0 2 -3 0 0 0 0];

internalField   nonuniform List<scalar> 
1600
(
0.000116607
0.000432204
0.000766075
0.00103089
0.0012319
0.00138273
0.00149471
0.0015768
0.00163634
0.00167936
0.00171074
0.00173432
0.00175299
0.00176886
0.00178338
0.00179756
0.00181205
0.00182728
0.0018435
0.00186083
0.00187922
0.00189849
0.00191822
0.00193783
0.00195717
0.00197797
0.00199579
0.00200724
0.00201109
0.00200308
0.00197804
0.00193122
0.00185686
0.00174858
0.00159928
0.00140103
0.00114493
0.000822749
0.000440671
0.000116733
0.000439949
0.000464189
0.000627095
0.000765458
0.000871241
0.000949415
0.00100593
0.00104612
0.0010743
0.00109395
0.00110779
0.00111784
0.00112555
0.00113191
0.00113758
0.00114297
0.00114833
0.00115379
0.00115942
0.00116521
0.00117113
0.00117708
0.00118295
0.00118865
0.00119416
0.00119979
0.00120348
0.0012046
0.00120233
0.00119463
0.00117966
0.00115528
0.00111894
0.00106768
0.000998014
0.00090546
0.000785097
0.00063326
0.000463708
0.000429597
0.00080944
0.000633698
0.000725965
0.000823427
0.000902702
0.000963055
0.00100703
0.00103798
0.00105952
0.00107434
0.00108454
0.00109169
0.00109692
0.00110099
0.00110443
0.00110759
0.00111065
0.00111375
0.00111695
0.00112029
0.00112377
0.00112735
0.001131
0.00113464
0.00113818
0.00114135
0.00114298
0.00114311
0.00114056
0.0011341
0.00112238
0.00110372
0.00107623
0.00103772
0.000985789
0.000918025
0.000832239
0.00072803
0.000629622
0.000752778
0.00112106
0.00078304
0.000828971
0.000901683
0.000965522
0.00101542
0.00105268
0.00107973
0.00109881
0.00111201
0.00112107
0.00112732
0.00113175
0.00113505
0.00113772
0.00114005
0.00114228
0.00114452
0.00114687
0.00114937
0.00115204
0.00115487
0.00115784
0.00116084
0.00116371
0.00116606
0.00116717
0.00116708
0.00116467
0.00115899
0.00114887
0.00113292
0.00110956
0.00107709
0.0010337
0.000977821
0.000908624
0.000828721
0.000768022
0.00100208
0.00137082
0.000901881
0.000914448
0.000970542
0.0010244
0.0010683
0.0011019
0.00112665
0.00114435
0.00115673
0.00116527
0.00117112
0.00117519
0.00117812
0.00118038
0.00118228
0.00118403
0.0011858
0.00118766
0.00118969
0.00119191
0.00119433
0.00119691
0.00119956
0.00120209
0.00120416
0.00120515
0.00120505
0.00120284
0.00119766
0.00118844
0.00117396
0.00115282
0.00112357
0.0010848
0.00103541
0.000975463
0.00090956
0.000871206
0.00118364
0.00156824
0.000994304
0.000982494
0.00102689
0.00107389
0.00111364
0.00114475
0.00116803
0.00118493
0.00119689
0.0012052
0.00121091
0.00121485
0.00121764
0.00121971
0.0012214
0.00122293
0.00122446
0.00122609
0.0012279
0.00122992
0.00123216
0.00123458
0.00123709
0.00123951
0.00124153
0.00124254
0.0012425
0.00124047
0.00123562
0.00122693
0.00121326
0.0011933
0.00116573
0.00112931
0.0010832
0.00102787
0.000970153
0.000944676
0.00131086
0.00172285
0.00106543
0.0010356
0.00107164
0.00111388
0.00115078
0.00118019
0.00120252
0.00121893
0.00123068
0.00123892
0.00124462
0.00124855
0.00125131
0.00125334
0.00125496
0.0012564
0.00125785
0.0012594
0.00126114
0.00126312
0.00126535
0.00126779
0.00127034
0.00127284
0.001275
0.00127619
0.00127632
0.00127456
0.00127004
0.00126176
0.00124858
0.00122921
0.00120235
0.0011668
0.00112175
0.00106786
0.00101393
0.00099495
0.00139548
0.00184276
0.00111983
0.00107647
0.00110654
0.00114552
0.0011805
0.0012088
0.00123054
0.00124667
0.00125833
0.00126659
0.00127234
0.00127634
0.00127915
0.00128122
0.00128287
0.00128434
0.00128582
0.00128743
0.00128925
0.00129134
0.00129372
0.00129636
0.00129915
0.00130195
0.00130448
0.00130615
0.00130669
0.00130545
0.00130149
0.00129376
0.00128105
0.00126203
0.00123529
0.00119953
0.00115388
0.00109907
0.00104497
0.00102723
0.00144274
0.00193486
0.00116113
0.00110759
0.00113343
0.00117022
0.00120396
0.00123157
0.00125297
0.00126898
0.00128065
0.00128898
0.00129484
0.00129894
0.00130187
0.00130404
0.0013058
0.0013074
0.00130902
0.00131081
0.00131285
0.00131523
0.00131795
0.001321
0.00132431
0.00132772
0.00133095
0.00133358
0.00133498
0.00133477
0.00133188
0.00132518
0.00131331
0.00129475
0.00126787
0.00123112
0.00118346
0.00112556
0.00106741
0.00104592
0.00145774
0.002005
0.00119228
0.00113113
0.001154
0.00118934
0.00122232
0.00124955
0.0012708
0.00128679
0.00129853
0.00130698
0.00131297
0.00131723
0.00132031
0.00132265
0.00132459
0.00132641
0.00132828
0.00133038
0.00133281
0.00133565
0.00133896
0.00134272
0.0013469
0.00135135
0.00135585
0.00136001
0.00136323
0.0013648
0.00136396
0.00135928
0.00134915
0.00133169
0.00130483
0.00126656
0.00121543
0.00115201
0.00108565
0.00105627
0.00145449
0.0020581
0.00121573
0.00114888
0.00116967
0.00120409
0.00123664
0.00126371
0.00128493
0.00130099
0.00131284
0.00132142
0.00132758
0.00133201
0.00133528
0.00133784
0.00134004
0.00134216
0.00134441
0.00134696
0.00134995
0.0013535
0.00135768
0.00136253
0.00136805
0.00137418
0.00138072
0.00138736
0.0013936
0.00139864
0.00140131
0.00140047
0.00139389
0.00137906
0.00135308
0.00131303
0.0012567
0.00118434
0.0011042
0.00106127
0.0014313
0.00209833
0.00123347
0.00116233
0.00118165
0.00121549
0.00124784
0.00127487
0.00129615
0.00131232
0.00132431
0.00133305
0.00133939
0.00134402
0.00134751
0.00135033
0.00135285
0.00135536
0.00135809
0.00136125
0.00136502
0.00136954
0.00137495
0.00138138
0.00138889
0.00139753
0.00140724
0.00141783
0.00142888
0.0014397
0.00144918
0.00145487
0.00145522
0.00144611
0.00142316
0.00138162
0.00131758
0.00123043
0.00112864
0.00106392
0.00139016
0.00212911
0.0012471
0.00117265
0.00119091
0.0012244
0.00125667
0.00128375
0.00130513
0.00132143
0.00133357
0.00134248
0.001349
0.00135383
0.00135758
0.0013607
0.0013636
0.00136658
0.00136992
0.00137386
0.00137862
0.00138443
0.00139152
0.00140012
0.00141047
0.00142279
0.00143724
0.00145389
0.00147259
0.0014928
0.00151336
0.0015323
0.00154446
0.00154688
0.00153165
0.00149012
0.00141467
0.00130285
0.00116538
0.0010662
0.00133127
0.00215322
0.0012579
0.00118079
0.00119823
0.00123148
0.00126375
0.00129091
0.00131241
0.00132884
0.00134113
0.00135019
0.00135689
0.00136194
0.00136595
0.00136941
0.00137274
0.00137628
0.00138034
0.00138523
0.00139124
0.00139871
0.00140799
0.00141952
0.00143378
0.00145131
0.00147268
0.00149842
0.0015289
0.00156406
0.00160301
0.00164344
0.00168084
0.00170266
0.00170434
0.00166729
0.00157499
0.00142094
0.00122147
0.00106689
0.00124906
0.00217283
0.00126684
0.00118746
0.00120421
0.00123728
0.00126956
0.0012968
0.00131842
0.00133498
0.00134739
0.00135659
0.00136346
0.00136872
0.001373
0.00137681
0.00138061
0.00138477
0.00138967
0.00139569
0.00140322
0.00141274
0.00142484
0.0014402
0.00145972
0.00148444
0.00151562
0.0015546
0.00160274
0.00166101
0.00172946
0.00180603
0.00188488
0.00195064
0.00197934
0.00195847
0.00184297
0.00161626
0.00130536
0.00105581
0.00112755
0.00218962
0.00127466
0.00119322
0.00120932
0.00124221
0.00127449
0.0013018
0.0013235
0.00134015
0.00135266
0.00136198
0.00136899
0.00137444
0.00137898
0.00138315
0.00138744
0.00139229
0.00139813
0.00140544
0.00141477
0.00142679
0.00144237
0.00146263
0.00148902
0.00152339
0.00156804
0.00162571
0.00169943
0.00179218
0.00190618
0.00204075
0.00218925
0.0023342
0.00241793
0.00243254
0.00229637
0.00195382
0.00144702
0.00100807
0.000936121
0.00220487
0.00128192
0.00119847
0.00121391
0.0012466
0.00127884
0.00130618
0.00132792
0.00134462
0.00135719
0.00136658
0.0013737
0.0013793
0.00138408
0.0013886
0.00139339
0.00139896
0.00140582
0.00141458
0.00142597
0.00144093
0.00146073
0.00148705
0.00152215
0.00156902
0.00163151
0.00171448
0.00182373
0.00196573
0.00214689
0.00237004
0.00262952
0.00290248
0.00311268
0.00319044
0.00307905
0.00260169
0.00179432
0.000987432
0.000699372
0.00221954
0.00128902
0.00120353
0.00121825
0.00125068
0.00128284
0.00131015
0.00133189
0.00134858
0.00136115
0.00137056
0.00137773
0.00138345
0.00138841
0.00139325
0.00139853
0.00140482
0.00141276
0.00142309
0.00143678
0.0014551
0.00147984
0.0015134
0.00155911
0.00162149
0.00170654
0.0018221
0.00197807
0.00218643
0.00246034
0.00280887
0.00322986
0.00369741
0.00415556
0.00439457
0.00443171
0.00391415
0.00273524
0.0012814
0.000648463
0.00223435
0.00129627
0.00120863
0.00122255
0.00125465
0.00128665
0.00131387
0.00133554
0.00135216
0.00136466
0.00137403
0.00138118
0.00138695
0.00139205
0.00139715
0.00140287
0.00140987
0.00141889
0.00143087
0.00144702
0.00146905
0.00149934
0.00154118
0.00159923
0.00167987
0.00179182
0.00194673
0.00215984
0.00245044
0.00284032
0.00334554
0.00396861
0.00469562
0.00550854
0.00618592
0.00644734
0.00623678
0.00487468
0.0025723
0.00109505
0.00224989
0.00130391
0.00121394
0.00122696
0.00125865
0.00129042
0.00131748
0.00133899
0.00135546
0.00136782
0.00137705
0.00138412
0.00138985
0.00139501
0.0014003
0.0014064
0.00141404
0.00142411
0.00143773
0.00145643
0.00148237
0.0015186
0.00156944
0.00164099
0.00174176
0.00188345
0.00208192
0.00235813
0.00273861
0.00325093
0.00391309
0.00473222
0.00574874
0.00702982
0.00826133
0.00885451
0.00904321
0.0082669
0.00595166
0.00327661
0.00226664
0.00131212
0.00121961
0.0012316
0.00126279
0.00129425
0.00132106
0.00134232
0.00135855
0.00137067
0.00137968
0.00138656
0.00139218
0.0013973
0.00140268
0.00140906
0.00141725
0.00142827
0.00144345
0.00146465
0.0014945
0.00153673
0.00159671
0.001682
0.00180313
0.00197462
0.00221593
0.00255232
0.00301372
0.00362556
0.00440244
0.00538743
0.00673265
0.00846279
0.00988495
0.0108371
0.0113185
0.0114528
0.0105531
0.00795113
0.00228508
0.00132108
0.00122576
0.00123658
0.00126717
0.00129822
0.00132467
0.0013456
0.00136148
0.00137325
0.00138195
0.00138854
0.00139393
0.00139892
0.00140429
0.00141082
0.00141943
0.00143126
0.00144784
0.00147133
0.00150482
0.00155269
0.00162122
0.0017192
0.00185879
0.00205644
0.00233362
0.00271661
0.00323223
0.00389679
0.00472738
0.0058407
0.00746401
0.00936876
0.0108424
0.0121201
0.0130814
0.0134313
0.0134717
0.0127786
0.0023057
0.00133097
0.00123251
0.00124201
0.00127188
0.0013024
0.00132838
0.00134885
0.00136427
0.00137559
0.00138386
0.00139007
0.00139514
0.00139989
0.00140514
0.00141171
0.00142059
0.00143303
0.00145074
0.00147617
0.00151277
0.00156545
0.00164114
0.00174943
0.00190334
0.00211986
0.00241996
0.00282633
0.00335479
0.00400378
0.00481032
0.00597692
0.00773353
0.00963751
0.0113436
0.0131777
0.0146916
0.015237
0.015238
0.0159178
0.00232905
0.00134198
0.00124
0.00124798
0.00127698
0.00130685
0.00133223
0.00135211
0.00136695
0.00137771
0.00138545
0.00139119
0.00139585
0.0014003
0.00140533
0.00141182
0.0014208
0.00143364
0.00145218
0.00147906
0.00151801
0.00157426
0.00165503
0.00177015
0.00193243
0.00215776
0.00246356
0.00286279
0.00335528
0.00394223
0.00468473
0.00583073
0.00761311
0.00956027
0.011511
0.014008
0.0163963
0.0173953
0.0174504
0.0187053
0.00235576
0.00135432
0.00124835
0.00125458
0.00128255
0.00131161
0.00133625
0.0013554
0.00136955
0.00137965
0.00138679
0.001392
0.0013962
0.00140028
0.00140504
0.00141138
0.00142037
0.00143341
0.00145244
0.00148021
0.0015206
0.00157891
0.00166226
0.00178001
0.00194366
0.00216638
0.00246096
0.00283715
0.00328468
0.00378289
0.00441106
0.0054731
0.0071664
0.00911854
0.0113628
0.0143965
0.0179155
0.0196454
0.0196462
0.0213072
0.00238658
0.00136822
0.00125772
0.00126192
0.00128866
0.00131674
0.00134048
0.00135878
0.00137213
0.00138151
0.00138802
0.00139269
0.00139647
0.00140024
0.00140475
0.00141092
0.00141984
0.00143295
0.00145219
0.00148032
0.00152123
0.00158002
0.0016633
0.0017795
0.0019391
0.00215313
0.00243013
0.00276647
0.00313791
0.00352472
0.00401619
0.0049131
0.00644391
0.00837402
0.0108964
0.014557
0.0191881
0.0220271
0.0220464
0.0234775
0.0024224
0.00138394
0.00126824
0.00127009
0.00129537
0.00132228
0.00134497
0.00136232
0.00137482
0.00138348
0.00138941
0.00139365
0.00139714
0.00140067
0.00140506
0.00141118
0.00142011
0.00143326
0.00145258
0.00148077
0.00152146
0.00157945
0.00166085
0.00177307
0.00192404
0.00212105
0.00236729
0.00265437
0.00295485
0.00324336
0.00359393
0.00427919
0.00558124
0.00746821
0.0102705
0.0145858
0.0202592
0.0244795
0.0247433
0.0255549
0.00246423
0.00140179
0.00128007
0.0012792
0.00130276
0.00132831
0.00134984
0.00136621
0.00137793
0.00138601
0.00139157
0.00139564
0.00139907
0.00140265
0.00140717
0.00141349
0.00142265
0.00143603
0.00145549
0.00148358
0.00152366
0.00158004
0.00165772
0.0017625
0.00190058
0.00207634
0.00228945
0.00252893
0.00276778
0.00297985
0.00321193
0.00369058
0.00473338
0.00653534
0.00955671
0.0144211
0.021058
0.0267732
0.0275187
0.0273859
0.00251319
0.00142206
0.00129327
0.00128936
0.00131094
0.001335
0.00135537
0.0013709
0.00138211
0.00139
0.00139566
0.00140006
0.00140399
0.00140821
0.00141347
0.00142058
0.00143053
0.0014446
0.00146455
0.00149269
0.00153203
0.0015863
0.0016599
0.0017568
0.00188013
0.002033
0.00221265
0.00240792
0.00259573
0.00275311
0.00290736
0.00323437
0.00403072
0.00569893
0.00883151
0.0140819
0.0214847
0.0287873
0.0304395
0.0290701
0.00257055
0.001445
0.00130804
0.00130072
0.00132014
0.00134276
0.00136224
0.00137742
0.00138878
0.00139729
0.00140397
0.00140966
0.00141513
0.00142109
0.0014282
0.00143721
0.00144903
0.00146483
0.00148618
0.00151512
0.00155424
0.00160662
0.00167572
0.0017651
0.00187667
0.00200758
0.0021552
0.00231051
0.00245475
0.00257125
0.00268002
0.00291815
0.00354577
0.00503126
0.00811213
0.0135686
0.021628
0.0304537
0.0333716
0.0306198
0.00263763
0.00147078
0.00132454
0.00131354
0.00133091
0.00135256
0.00137201
0.00138799
0.00140092
0.00141164
0.001421
0.00142977
0.00143866
0.00144829
0.00145925
0.00147219
0.00148793
0.00150749
0.00153222
0.00156385
0.00160448
0.0016565
0.00172238
0.00180436
0.00190377
0.00201984
0.00214557
0.00226722
0.00237339
0.00245497
0.00253389
0.00271939
0.00323494
0.00453184
0.00740353
0.0128638
0.021486
0.031709
0.0362794
0.0320555
0.00271615
0.00149955
0.00134305
0.00132852
0.00134464
0.00136681
0.00138827
0.00140755
0.00142483
0.00144068
0.00145581
0.00147093
0.00148662
0.00150344
0.00152189
0.00154255
0.0015661
0.0015934
0.00162557
0.00166397
0.00171019
0.00176589
0.00183254
0.00191107
0.00200139
0.00210185
0.00220714
0.00230877
0.00239445
0.00245743
0.00251585
0.00266237
0.00309051
0.0042234
0.00679629
0.0120248
0.0209454
0.0326333
0.039059
0.0334006
0.00280849
0.00153131
0.00136433
0.00134753
0.00136501
0.0013914
0.00141944
0.00144699
0.00147384
0.00150039
0.00152719
0.00155478
0.0015837
0.00161441
0.00164738
0.00168314
0.00172225
0.00176545
0.00181353
0.00186746
0.00192824
0.00199676
0.0020735
0.00215813
0.00224909
0.00234317
0.00243498
0.00251763
0.00258226
0.00262619
0.0026735
0.00280224
0.00317736
0.00416711
0.00651289
0.0114299
0.0203401
0.0333447
0.0416349
0.0346858
0.00291928
0.00156672
0.00139082
0.00137597
0.00140203
0.00144115
0.00148486
0.00153065
0.00157783
0.00162644
0.0016768
0.00172938
0.00178467
0.00184324
0.0019056
0.00197229
0.00204383
0.00212074
0.00220353
0.00229264
0.00238829
0.0024904
0.00259832
0.00271041
0.00282361
0.00293325
0.00303318
0.0031166
0.00317798
0.00321966
0.00326843
0.00339653
0.00375107
0.00464942
0.00674191
0.0112704
0.0200773
0.0340299
0.0438203
0.0359378
0.00304454
0.00160552
0.00143033
0.00143101
0.00148192
0.00155233
0.0016326
0.00171927
0.00181094
0.00190721
0.00200822
0.00211451
0.00222684
0.00234613
0.00247323
0.00260878
0.00275323
0.00290682
0.00306952
0.00324089
0.00341978
0.00360447
0.00379255
0.00398062
0.00416388
0.00433608
0.00449019
0.00461946
0.00472032
0.00480026
0.00488643
0.00505672
0.00544267
0.00632561
0.00826503
0.0123742
0.0206106
0.0352067
0.0456394
0.0372542
0.00322048
0.00166087
0.00151018
0.00156146
0.00167991
0.00183021
0.002001
0.00218734
0.00238685
0.00259854
0.00282249
0.00305959
0.00331122
0.00357918
0.00386519
0.00416961
0.00449201
0.00483144
0.00518614
0.00555375
0.00593012
0.00631012
0.00668814
0.00705763
0.00741147
0.00774154
0.00804039
0.00830142
0.00852407
0.00871695
0.00891166
0.00918162
0.00964956
0.0105791
0.0124192
0.016164
0.0234724
0.0377097
0.04732
0.0380076
0.00339666
0.00177093
0.00172075
0.00193886
0.00225938
0.00264157
0.00307166
0.00354232
0.00404821
0.00458587
0.00515397
0.00575257
0.00638279
0.00704663
0.00774679
0.0084799
0.00924041
0.010021
0.0108147
0.0116138
0.0124094
0.013192
0.0139524
0.0146795
0.0153648
0.0159977
0.0165747
0.0170864
0.0175384
0.0179362
0.0183106
0.0187334
0.0192743
0.0202286
0.0218488
0.0251576
0.0308121
0.0428735
0.0489595
0.0383239
0.00377728
0.00206464
0.0024688
0.00331908
0.00436821
0.00555194
0.00685433
0.00825591
0.00973234
0.0112632
0.0128346
0.0144373
0.0160651
0.0177133
0.019378
0.0210418
0.0226878
0.0243018
0.0258744
0.0273896
0.0288405
0.0302178
0.0315193
0.0327295
0.03385
0.0348585
0.0357828
0.0365847
0.0372945
0.0378833
0.0383987
0.0388955
0.039325
0.0401932
0.0414793
0.0441971
0.0467286
0.0528193
0.0517822
0.0381367
0.00406863
0.00307893
0.00570368
0.00938632
0.0132827
0.0172641
0.0213682
0.0255406
0.0296864
0.033729
0.0376249
0.0413515
0.0448984
0.0482566
0.0513999
0.0543167
0.0570097
0.0594947
0.0617876
0.0638888
0.0658181
0.0675586
0.0691433
0.070531
0.0717812
0.0728147
0.0737284
0.0743834
0.0749616
0.0752595
0.0755045
0.0755231
0.0754962
0.0752453
0.0744015
0.0723555
0.067369
0.0622384
0.0545815
0.0358687
0.00289976
0.00467847
0.00741013
0.00995562
0.0123003
0.0144477
0.016441
0.0183284
0.020141
0.0218911
0.0235831
0.0252226
0.0268067
0.0283518
0.0298485
0.0312852
0.0326675
0.0339892
0.0352675
0.03649
0.0376776
0.0388096
0.0399137
0.0409601
0.0419813
0.0429385
0.0438617
0.0447132
0.0455004
0.0461981
0.0467603
0.0471963
0.047378
0.0473215
0.0471852
0.04688
0.0462156
0.0448603
0.0420192
0.033934
)
;

boundaryField
{
    movingWall
    {
        type            epsilonWallFunction;
        value           nonuniform List<scalar> 
40
(
0.00289976
0.00467847
0.00741013
0.00995562
0.0123003
0.0144477
0.016441
0.0183284
0.020141
0.0218911
0.0235831
0.0252226
0.0268067
0.0283518
0.0298485
0.0312852
0.0326675
0.0339892
0.0352675
0.03649
0.0376776
0.0388096
0.0399137
0.0409601
0.0419813
0.0429385
0.0438617
0.0447132
0.0455004
0.0461981
0.0467603
0.0471963
0.047378
0.0473215
0.0471852
0.04688
0.0462156
0.0448603
0.0420192
0.033934
)
;
    }
    fixedWalls
    {
        type            epsilonWallFunction;
        value           nonuniform List<scalar> 
120
(
0.000116607
0.000439949
0.00080944
0.00112106
0.00137082
0.00156824
0.00172285
0.00184276
0.00193486
0.002005
0.0020581
0.00209833
0.00212911
0.00215322
0.00217283
0.00218962
0.00220487
0.00221954
0.00223435
0.00224989
0.00226664
0.00228508
0.0023057
0.00232905
0.00235576
0.00238658
0.0024224
0.00246423
0.00251319
0.00257055
0.00263763
0.00271615
0.00280849
0.00291928
0.00304454
0.00322048
0.00339666
0.00377728
0.00406863
0.00289976
0.000116733
0.000429597
0.000752778
0.00100208
0.00118364
0.00131086
0.00139548
0.00144274
0.00145774
0.00145449
0.0014313
0.00139016
0.00133127
0.00124906
0.00112755
0.000936121
0.000699372
0.000648463
0.00109505
0.00327661
0.00795113
0.0127786
0.0159178
0.0187053
0.0213072
0.0234775
0.0255549
0.0273859
0.0290701
0.0306198
0.0320555
0.0334006
0.0346858
0.0359378
0.0372542
0.0380076
0.0383239
0.0381367
0.0358687
0.033934
0.000116607
0.000432204
0.000766075
0.00103089
0.0012319
0.00138273
0.00149471
0.0015768
0.00163634
0.00167936
0.00171074
0.00173432
0.00175299
0.00176886
0.00178338
0.00179756
0.00181205
0.00182728
0.0018435
0.00186083
0.00187922
0.00189849
0.00191822
0.00193783
0.00195717
0.00197797
0.00199579
0.00200724
0.00201109
0.00200308
0.00197804
0.00193122
0.00185686
0.00174858
0.00159928
0.00140103
0.00114493
0.000822749
0.000440671
0.000116733
)
;
    }
    frontAndBack
    {
        type            empty;
    }
}


// ************************************************************************* //
