/*--------------------------------*- C++ -*----------------------------------*\
  =========                 |
  \\      /  F ield         | OpenFOAM: The Open Source CFD Toolbox
   \\    /   O peration     | Website:  https://openfoam.org
    \\  /    A nd           | Version:  12
     \\/     M anipulation  |
\*---------------------------------------------------------------------------*/
FoamFile
{
    format      ascii;
    class       volScalarField;
    location    "0.7";
    object      k;
}
// * * * * * * * * * * * * * * * * * * * * * * * * * * * * * * * * * * * * * //

dimensions      [0 2 -2 0 0 0 0];

internalField   nonuniform List<scalar> 
1600
(
9.0232e-06
3.351e-05
5.94311e-05
8.00014e-05
9.5624e-05
0.000107354
0.000116069
0.000122462
0.000127103
0.000130459
0.000132909
0.000134751
0.000136211
0.000137451
0.000138587
0.000139696
0.000140829
0.000142021
0.000143291
0.000144648
0.00014609
0.0001476
0.000149147
0.000150684
0.000152198
0.000153826
0.000155223
0.00015612
0.000156424
0.000155799
0.000153844
0.000150189
0.000144387
0.000135942
0.000124305
0.000108862
8.89257e-05
6.38643e-05
3.41707e-05
9.03317e-06
3.41137e-05
0.000184182
0.000289758
0.000361864
0.000413446
0.000451031
0.000478528
0.00049858
0.000513127
0.000523673
0.000531395
0.000537201
0.000541779
0.000545634
0.000549124
0.0005525
0.000555928
0.000559519
0.000563341
0.000567427
0.000571775
0.000576344
0.000581034
0.000585666
0.000589972
0.000593496
0.00059601
0.000597079
0.0005964
0.000592852
0.00058559
0.000573537
0.000555407
0.000529659
0.000494368
0.000446999
0.000383929
0.000299362
0.000181675
3.33041e-05
6.28149e-05
0.000298798
0.000444769
0.000541903
0.000611414
0.000662225
0.000699485
0.000726686
0.000746408
0.000760644
0.000770952
0.000778542
0.000784333
0.000789009
0.000793062
0.000796835
0.000800559
0.000804384
0.000808398
0.00081264
0.000817103
0.000821728
0.000826396
0.000830914
0.000835007
0.000838296
0.000840068
0.00084021
0.000837625
0.000831333
0.000820209
0.000802916
0.000777869
0.000743164
0.000696423
0.000634462
0.000552563
0.000442433
0.000283561
5.83848e-05
8.70411e-05
0.000381197
0.000552377
0.000664841
0.000745522
0.00080488
0.000848713
0.000880928
0.000904425
0.000921448
0.000933763
0.000942754
0.000949491
0.000954778
0.000959204
0.000963188
0.000967014
0.000970869
0.000974863
0.000979043
0.000983398
0.000987859
0.000992287
0.000996458
0.00100005
0.00100251
0.00100338
0.00100206
0.000997478
0.000988573
0.000974092
0.000952567
0.000922275
0.000881155
0.000826635
0.000755238
0.000661621
0.000535782
0.000351411
7.7736e-05
0.000106474
0.000442962
0.00063276
0.000756617
0.000845646
0.0009115
0.000960473
0.00099674
0.00102338
0.00104278
0.00105685
0.00106709
0.00107467
0.0010805
0.00108525
0.00108938
0.00109325
0.00109707
0.00110097
0.001105
0.00110915
0.00111334
0.00111741
0.00112109
0.001124
0.00112548
0.00112528
0.00112236
0.00111575
0.00110431
0.00108671
0.00106142
0.00102663
0.000980205
0.000919477
0.00084077
0.000738284
0.00060077
0.000398143
9.18294e-05
0.000121846
0.000490082
0.000694346
0.000827311
0.0009231
0.000994291
0.00104755
0.00108726
0.00111661
0.0011381
0.00115374
0.00116511
0.00117347
0.00117979
0.00118482
0.00118908
0.00119296
0.0011967
0.00120046
0.0012043
0.0012082
0.00121205
0.00121568
0.0012188
0.00122085
0.00122147
0.00121999
0.00121546
0.00120685
0.00119296
0.00117242
0.00114365
0.0011048
0.00105371
0.000987618
0.000902738
0.000792961
0.000646196
0.000430062
0.000101705
0.000133896
0.000526271
0.000741967
0.000882386
0.000983817
0.00105952
0.00111645
0.00115912
0.00119084
0.00121419
0.00123123
0.00124361
0.00125268
0.00125945
0.00126473
0.00126911
0.00127299
0.00127665
0.00128026
0.00128389
0.00128752
0.00129102
0.0012942
0.0012967
0.00129796
0.00129768
0.00129495
0.00128886
0.00127834
0.00126214
0.00123885
0.00120685
0.00116427
0.0011089
0.00103797
0.00094759
0.000831497
0.000677158
0.000451012
0.000108272
0.00014325
0.000554087
0.000778861
0.000925411
0.00103159
0.00111114
0.00117122
0.00121647
0.00125027
0.00127525
0.00129353
0.00130683
0.00131653
0.00132372
0.00132924
0.00133372
0.0013376
0.00134119
0.00134467
0.00134811
0.0013515
0.00135469
0.00135746
0.00135936
0.00136
0.00135885
0.001355
0.00134751
0.00133526
0.00131696
0.00129117
0.0012562
0.00121015
0.0011508
0.00107531
0.000979777
0.000857903
0.00069709
0.000462859
0.000111923
0.000150442
0.000575417
0.000807393
0.000958977
0.00106914
0.00115197
0.00121477
0.00126225
0.00129785
0.00132426
0.00134364
0.00135775
0.00136802
0.00137559
0.00138133
0.00138591
0.00138982
0.00139337
0.00139676
0.00140008
0.00140329
0.00140626
0.00140873
0.00141017
0.00141037
0.00140853
0.0014038
0.00139518
0.00138152
0.00136147
0.0013335
0.00129588
0.00124664
0.00118347
0.00110352
0.00100287
0.000875262
0.000708187
0.000467071
0.000113068
0.000155924
0.000591717
0.000829387
0.000985081
0.00109857
0.00118418
0.00124929
0.00129869
0.00133585
0.0013635
0.00138383
0.00139866
0.00140944
0.00141734
0.0014233
0.00142801
0.00143197
0.00143553
0.00143891
0.00144219
0.00144534
0.00144823
0.00145058
0.00145183
0.00145182
0.00144962
0.0014444
0.0014351
0.00142051
0.00139921
0.00136956
0.00132972
0.00127757
0.0012107
0.00112618
0.00102009
0.000886346
0.00071272
0.000466721
0.000112794
0.000160078
0.000604146
0.000846294
0.00100532
0.00112156
0.00120949
0.00127657
0.0013276
0.00136608
0.00139479
0.00141594
0.00143138
0.00144261
0.00145083
0.00145701
0.00146186
0.00146592
0.00146957
0.00147303
0.0014764
0.00147966
0.00148266
0.00148516
0.00148657
0.0014867
0.00148464
0.00147949
0.00147016
0.00145537
0.00143356
0.00140296
0.0013615
0.00130684
0.00123633
0.00114687
0.0010346
0.000893795
0.000713296
0.000461751
0.00011096
0.000163228
0.000613639
0.000859289
0.00102099
0.00113949
0.00122934
0.00129805
0.00135044
0.00139004
0.00141963
0.00144148
0.00145745
0.00146907
0.00147758
0.00148397
0.001489
0.00149322
0.00149704
0.0015007
0.00150431
0.00150788
0.00151128
0.00151426
0.0015163
0.00151706
0.0015158
0.00151153
0.0015031
0.00148911
0.00146786
0.00143733
0.00139511
0.00133844
0.00126424
0.00116913
0.00104927
0.000899614
0.000710293
0.000452709
0.000107723
0.00016564
0.000620951
0.000869325
0.00103315
0.00115347
0.00124489
0.00131494
0.00136845
0.00140897
0.00143929
0.00146172
0.00147813
0.00149009
0.00149886
0.00150548
0.00151071
0.00151516
0.00151925
0.00152324
0.00152728
0.00153141
0.00153552
0.0015394
0.00154269
0.00154473
0.00154513
0.00154278
0.00153646
0.00152464
0.00150537
0.00147623
0.00143431
0.00137615
0.00129794
0.00119577
0.00106592
0.000903316
0.000703237
0.000439278
0.000103089
0.000167529
0.00062669
0.000877175
0.00104268
0.00116445
0.00125713
0.00132825
0.00138265
0.00142391
0.00145482
0.00147771
0.00149448
0.00150673
0.00151575
0.00152259
0.00152807
0.00153281
0.00153726
0.00154174
0.00154642
0.00155139
0.0015566
0.00156189
0.00156698
0.00157143
0.00157438
0.00157524
0.00157254
0.00156455
0.00154892
0.00152265
0.00148194
0.00142237
0.00133894
0.00122689
0.00108092
0.000901778
0.000687537
0.000418614
9.65985e-05
0.000169064
0.000631336
0.000883459
0.00105028
0.00117318
0.00126685
0.00133881
0.00139391
0.00143573
0.0014671
0.00149034
0.0015074
0.00151988
0.00152912
0.0015362
0.00154195
0.00154704
0.00155196
0.00155707
0.00156262
0.00156873
0.00157546
0.00158274
0.0015904
0.00159808
0.00160518
0.00161059
0.00161301
0.00161057
0.00160021
0.00157787
0.00153843
0.00147576
0.0013835
0.00125184
0.00108269
0.000880141
0.000649296
0.000381854
8.69496e-05
0.000170377
0.000635263
0.000888664
0.0010565
0.00118028
0.0012747
0.0013473
0.00140292
0.00144516
0.00147685
0.00150034
0.0015176
0.00153027
0.00153971
0.00154701
0.00155306
0.00155856
0.00156404
0.00156993
0.00157655
0.00158412
0.00159281
0.00160269
0.00161373
0.00162568
0.00163804
0.0016498
0.00165893
0.00166283
0.00165873
0.00163998
0.00159928
0.00152775
0.00141292
0.00125428
0.00105068
0.000815663
0.000565023
0.000310609
7.16813e-05
0.000171568
0.00063876
0.000893173
0.00106179
0.00118623
0.00128121
0.00135427
0.00141025
0.00145276
0.00148465
0.0015083
0.00152569
0.00153849
0.00154808
0.00155559
0.00156195
0.00156789
0.00157402
0.00158082
0.0015887
0.00159803
0.0016091
0.00162216
0.00163733
0.00165453
0.00167324
0.00169233
0.00170964
0.00171956
0.00172068
0.00170206
0.0016525
0.00155637
0.00141177
0.00122107
0.00100512
0.000766807
0.000501599
0.000226589
5.36689e-05
0.000172711
0.000642045
0.000897281
0.0010665
0.00119143
0.00128681
0.00136016
0.00141636
0.001459
0.00149099
0.00151469
0.00153213
0.00154499
0.00155469
0.00156238
0.00156904
0.00157545
0.00158226
0.00159006
0.00159937
0.00161068
0.00162448
0.0016412
0.00166111
0.00168423
0.00170999
0.00173685
0.00176178
0.00177645
0.00177834
0.00175126
0.001678
0.00154875
0.00137622
0.001205
0.00102796
0.000815751
0.000519833
0.000209951
5.05962e-05
0.000173863
0.000645287
0.000901215
0.0010709
0.00119618
0.0012918
0.00136531
0.00142159
0.00146425
0.00149621
0.00151988
0.00153728
0.00155013
0.00155987
0.00156771
0.00157463
0.00158148
0.001589
0.00159784
0.00160867
0.00162212
0.00163886
0.0016595
0.00168445
0.00171372
0.00174648
0.00178046
0.00181088
0.00182542
0.00182091
0.00177173
0.00166221
0.00150706
0.00137525
0.00132495
0.00129159
0.00114437
0.00076243
0.000304394
8.9225e-05
0.000175071
0.000648616
0.000905152
0.0010752
0.0012007
0.00129645
0.00136998
0.00142621
0.00146878
0.0015006
0.00152412
0.00154139
0.00155415
0.00156387
0.00157178
0.00157892
0.00158617
0.00159436
0.00160423
0.00161657
0.00163219
0.00165189
0.00167643
0.00170629
0.00174131
0.00178015
0.00181943
0.00184965
0.00185917
0.00183512
0.00174904
0.00159999
0.00152311
0.00157261
0.00172378
0.00177248
0.00169133
0.00127943
0.000654772
0.000268824
0.000176373
0.000652142
0.000909235
0.00107956
0.00120519
0.00130094
0.00137438
0.00143044
0.00147278
0.00150435
0.00152762
0.00154466
0.00155724
0.00156685
0.00157476
0.00158203
0.00158962
0.00159839
0.00160921
0.00162297
0.0016406
0.00166306
0.00169116
0.00172531
0.00176501
0.00180808
0.00184943
0.00187269
0.00187091
0.00181735
0.00169434
0.00161673
0.00166417
0.00195353
0.00216087
0.00222747
0.00219374
0.00185284
0.00119062
0.000639864
0.000177805
0.00065596
0.000913584
0.00108412
0.00120979
0.00130543
0.00137865
0.00143441
0.0014764
0.0015076
0.00153051
0.00154722
0.00155953
0.00156894
0.00157675
0.00158406
0.00159187
0.00160111
0.00161272
0.00162769
0.00164706
0.00167183
0.00170281
0.00174019
0.00178294
0.00182781
0.001866
0.00188058
0.00186106
0.00177719
0.00166917
0.0016576
0.00188145
0.00229851
0.00252673
0.00261823
0.00262229
0.00235211
0.00164455
0.00101018
0.000179407
0.000660162
0.000918311
0.001089
0.0012146
0.00131002
0.0013829
0.00143823
0.00147974
0.00151045
0.00153288
0.00154916
0.00156109
0.00157022
0.00157783
0.00158508
0.00159298
0.00160252
0.00161472
0.00163061
0.00165129
0.00167776
0.00171069
0.00174995
0.00179387
0.00183801
0.00186889
0.0018747
0.00183584
0.00172858
0.00165597
0.00170882
0.00205651
0.00251141
0.00281808
0.00297804
0.00302183
0.00280042
0.00203966
0.00125021
0.00018122
0.000664846
0.000923519
0.0010943
0.00121974
0.00131481
0.00138721
0.00144197
0.00148286
0.00151295
0.00153479
0.00155054
0.00156201
0.00157075
0.00157807
0.00158514
0.00159301
0.00160269
0.00161523
0.00163171
0.0016532
0.00168063
0.00171446
0.00175415
0.00179733
0.00183854
0.00186221
0.00185847
0.00180048
0.00168326
0.00162837
0.00172938
0.0021292
0.00258988
0.00297334
0.003268
0.00337906
0.00323591
0.0024545
0.00146771
0.000183295
0.000670114
0.000929315
0.00110011
0.00122527
0.00131985
0.00139161
0.00144564
0.00148578
0.00151513
0.00153628
0.00155141
0.00156234
0.00157064
0.00157765
0.00158451
0.00159226
0.00160193
0.00161456
0.00163123
0.00165296
0.00168058
0.00171431
0.00175328
0.00179467
0.00183173
0.00184812
0.00183364
0.00176222
0.00163853
0.0015865
0.00170333
0.00210197
0.00257576
0.00301852
0.00347381
0.00369907
0.00364873
0.00284516
0.00166808
0.000185689
0.00067608
0.000935804
0.00110652
0.00123126
0.00132517
0.00139612
0.00144925
0.0014885
0.001517
0.00153738
0.00155183
0.00156219
0.00157005
0.00157667
0.00158322
0.00159077
0.00160034
0.00161295
0.00162964
0.00165134
0.00167869
0.00171168
0.00174902
0.00178726
0.00181829
0.001829
0.00180647
0.00172776
0.001599
0.00153736
0.00163757
0.00200283
0.0024837
0.00301033
0.00358849
0.00399123
0.00403711
0.00323048
0.00183632
0.000188473
0.000682867
0.00094309
0.0011136
0.00123773
0.00133078
0.0014007
0.00145278
0.001491
0.00151856
0.00153811
0.00155188
0.00156171
0.0015691
0.00157538
0.00158169
0.00158905
0.00159847
0.00161093
0.00162739
0.00164866
0.00167521
0.00170675
0.00174167
0.00177626
0.00180209
0.00180849
0.0017814
0.00170163
0.00157286
0.00149081
0.00154852
0.00186064
0.0023436
0.00294595
0.00364434
0.00423885
0.00439189
0.00360167
0.00199748
0.000191723
0.000690606
0.000951267
0.00112138
0.00124467
0.00133662
0.00140532
0.00145617
0.00149325
0.00151983
0.00153858
0.00155173
0.00156108
0.00156816
0.00157424
0.00158042
0.00158772
0.00159708
0.00160943
0.00162564
0.0016464
0.00167197
0.00170184
0.00173417
0.00176512
0.0017867
0.00179009
0.00176197
0.00168717
0.00156803
0.00146519
0.00147949
0.00172308
0.00219817
0.00286711
0.00366794
0.00442583
0.00470462
0.00395656
0.00213924
0.000195528
0.000699424
0.000960409
0.00112989
0.00125205
0.00134261
0.00140987
0.00145937
0.00149528
0.00152091
0.00153897
0.00155168
0.00156078
0.00156777
0.0015739
0.00158022
0.00158769
0.00159721
0.00160964
0.00162581
0.00164625
0.00167101
0.00169938
0.00172935
0.00175716
0.0017757
0.00177739
0.00175082
0.00168493
0.00157802
0.00147341
0.00146318
0.00163858
0.00208316
0.00279608
0.00367252
0.00453778
0.00496251
0.0042908
0.00227024
0.000199987
0.000709436
0.000970551
0.00113906
0.00125976
0.00134866
0.0014143
0.00146239
0.00149719
0.00152205
0.00153967
0.00155219
0.00156136
0.0015686
0.00157509
0.00158187
0.00158984
0.00159986
0.00161275
0.00162918
0.00164963
0.00167408
0.00170171
0.00173043
0.00175647
0.00177344
0.00177464
0.00175095
0.00169265
0.00160109
0.00150414
0.00148529
0.00162422
0.00202404
0.00273238
0.00364304
0.00458045
0.00516257
0.00459618
0.00239064
0.000205202
0.000720725
0.000981675
0.00114881
0.00126765
0.00135465
0.00141862
0.00146541
0.00149936
0.00152382
0.00154143
0.00155425
0.00156399
0.00157204
0.00157953
0.00158742
0.00159657
0.00160779
0.0016218
0.0016392
0.00166034
0.00168508
0.00171249
0.00174046
0.0017654
0.00178192
0.00178335
0.0017628
0.00171382
0.0016382
0.00155783
0.00153923
0.00165264
0.00200069
0.00266332
0.00357222
0.00458202
0.00530366
0.00488213
0.00250245
0.000211307
0.000733327
0.000993696
0.00115896
0.00127563
0.00136063
0.00142311
0.00146902
0.00150272
0.00152749
0.00154583
0.00155978
0.00157101
0.00158083
0.00159031
0.00160036
0.00161179
0.00162533
0.00164164
0.00166122
0.0016843
0.00171065
0.00173928
0.00176806
0.00179355
0.00181093
0.00181411
0.00179817
0.0017584
0.00169613
0.00163033
0.00161551
0.00170704
0.00199645
0.00258263
0.00345901
0.00451187
0.00538744
0.00513424
0.00260718
0.00021849
0.00074714
0.00100647
0.00116942
0.00128377
0.0013671
0.00142877
0.00147479
0.00150939
0.00153564
0.00155603
0.00157255
0.00158677
0.00159994
0.00161309
0.00162708
0.00164265
0.00166048
0.00168112
0.00170499
0.00173224
0.00176253
0.00179482
0.00182703
0.00185594
0.00187708
0.00188493
0.00187542
0.00184593
0.00179543
0.00174086
0.0017262
0.00179585
0.00202778
0.00253084
0.00334216
0.00440342
0.00543305
0.00535848
0.00270736
0.000227113
0.000762298
0.00101997
0.00118039
0.00129295
0.00137581
0.00143842
0.00148646
0.00152392
0.00155386
0.00157869
0.0016003
0.0016202
0.0016396
0.0016595
0.00168067
0.0017038
0.00172947
0.00175818
0.00179026
0.00182571
0.00186412
0.00190443
0.00194466
0.00198168
0.00201132
0.0020287
0.00202889
0.00201191
0.00197522
0.0019315
0.00191648
0.00196617
0.00214333
0.00255024
0.00329309
0.00434036
0.00545639
0.0055251
0.00280491
0.000236869
0.000778529
0.00103459
0.00119346
0.00130655
0.00139215
0.00145902
0.00151273
0.00155716
0.0015952
0.00162916
0.00166086
0.00169181
0.00172325
0.00175616
0.00179127
0.00182914
0.00187025
0.00191492
0.00196331
0.00201513
0.00206973
0.00212596
0.00218195
0.00223481
0.00228062
0.00231492
0.00233344
0.00233296
0.00231836
0.0022912
0.00228204
0.00231791
0.00244925
0.00276213
0.00337846
0.00433244
0.00549092
0.00560663
0.00290757
0.000250586
0.000797976
0.00105327
0.00121553
0.00133537
0.00143044
0.00150945
0.00157754
0.00163828
0.00169439
0.00174805
0.00180113
0.00185517
0.00191152
0.0019713
0.00203498
0.00210276
0.00217477
0.00225099
0.00233137
0.002415
0.00250054
0.00258655
0.00267134
0.00275262
0.00282652
0.00288914
0.00293648
0.00296605
0.00297865
0.00297936
0.00298507
0.00301583
0.00311093
0.00333379
0.00379313
0.0045576
0.00560757
0.00564619
0.00296631
0.000264334
0.000823728
0.00109051
0.00126992
0.00141374
0.00153824
0.001651
0.00175648
0.0018577
0.00195695
0.00205618
0.00215706
0.00226109
0.0023697
0.00248459
0.00260511
0.00273016
0.00285867
0.00298995
0.00312431
0.00326019
0.00339475
0.00352607
0.0036519
0.00376986
0.00387791
0.00397354
0.00405394
0.00411746
0.00416301
0.00419303
0.00421553
0.00424383
0.00430607
0.00443621
0.00471438
0.00516012
0.00585861
0.00565669
0.00299096
0.000294026
0.000878158
0.00119956
0.00145238
0.00167989
0.00189405
0.00210141
0.00230485
0.0025054
0.00270377
0.00290081
0.00309738
0.00329432
0.00349284
0.00369754
0.00390411
0.00410849
0.00430866
0.00450374
0.00469077
0.00486875
0.00503821
0.0051991
0.0053501
0.00549069
0.00561849
0.00573299
0.00583098
0.00591368
0.0059771
0.00602424
0.00605657
0.0060732
0.00610579
0.00615211
0.00625902
0.00628684
0.00627782
0.00562234
0.00297618
0.000316991
0.00100319
0.00158916
0.00212806
0.00260591
0.00304588
0.00346256
0.00385876
0.00423257
0.00458307
0.00491131
0.00521906
0.0055083
0.00578134
0.00603297
0.00626423
0.00647807
0.00667708
0.00686323
0.00703646
0.00719783
0.00734655
0.00748458
0.00760956
0.00772454
0.00782443
0.00791531
0.00798818
0.00805283
0.00809483
0.00812864
0.00814094
0.00813835
0.00810828
0.00801469
0.00778451
0.00728504
0.00651502
0.00528917
0.00279922
0.000225897
0.00036459
0.000577611
0.000776119
0.000958998
0.0011265
0.00128199
0.00142925
0.00157069
0.00170728
0.00183932
0.00196731
0.00209095
0.00221156
0.00232843
0.00244063
0.0025486
0.00265182
0.00275164
0.00284711
0.00293983
0.00302823
0.00311441
0.00319611
0.00327577
0.0033505
0.00342243
0.0034889
0.00355014
0.00360459
0.00364824
0.00368225
0.00369634
0.00369196
0.00368139
0.00365768
0.003606
0.00350038
0.00327881
0.002648
)
;

boundaryField
{
    movingWall
    {
        type            kqRWallFunction;
        value           nonuniform List<scalar> 
40
(
0.000225897
0.00036459
0.000577611
0.000776119
0.000958998
0.0011265
0.00128199
0.00142925
0.00157069
0.00170728
0.00183932
0.00196731
0.00209095
0.00221156
0.00232843
0.00244063
0.0025486
0.00265182
0.00275164
0.00284711
0.00293983
0.00302823
0.00311441
0.00319611
0.00327577
0.0033505
0.00342243
0.0034889
0.00355014
0.00360459
0.00364824
0.00368225
0.00369634
0.00369196
0.00368139
0.00365768
0.003606
0.00350038
0.00327881
0.002648
)
;
    }
    fixedWalls
    {
        type            kqRWallFunction;
        value           nonuniform List<scalar> 
120
(
9.0232e-06
3.41137e-05
6.28149e-05
8.70411e-05
0.000106474
0.000121846
0.000133896
0.00014325
0.000150442
0.000155924
0.000160078
0.000163228
0.00016564
0.000167529
0.000169064
0.000170377
0.000171568
0.000172711
0.000173863
0.000175071
0.000176373
0.000177805
0.000179407
0.00018122
0.000183295
0.000185689
0.000188473
0.000191723
0.000195528
0.000199987
0.000205202
0.000211307
0.00021849
0.000227113
0.000236869
0.000250586
0.000264334
0.000294026
0.000316991
0.000225897
9.03317e-06
3.33041e-05
5.83848e-05
7.7736e-05
9.18294e-05
0.000101705
0.000108272
0.000111923
0.000113068
0.000112794
0.00011096
0.000107723
0.000103089
9.65985e-05
8.69496e-05
7.16813e-05
5.36689e-05
5.05962e-05
8.9225e-05
0.000268824
0.000639864
0.00101018
0.00125021
0.00146771
0.00166808
0.00183632
0.00199748
0.00213924
0.00227024
0.00239064
0.00250245
0.00260718
0.00270736
0.00280491
0.00290757
0.00296631
0.00299096
0.00297618
0.00279922
0.002648
9.0232e-06
3.351e-05
5.94311e-05
8.00014e-05
9.5624e-05
0.000107354
0.000116069
0.000122462
0.000127103
0.000130459
0.000132909
0.000134751
0.000136211
0.000137451
0.000138587
0.000139696
0.000140829
0.000142021
0.000143291
0.000144648
0.00014609
0.0001476
0.000149147
0.000150684
0.000152198
0.000153826
0.000155223
0.00015612
0.000156424
0.000155799
0.000153844
0.000150189
0.000144387
0.000135942
0.000124305
0.000108862
8.89257e-05
6.38643e-05
3.41707e-05
9.03317e-06
)
;
    }
    frontAndBack
    {
        type            empty;
    }
}


// ************************************************************************* //
