/*--------------------------------*- C++ -*----------------------------------*\
  =========                 |
  \\      /  F ield         | OpenFOAM: The Open Source CFD Toolbox
   \\    /   O peration     | Website:  https://openfoam.org
    \\  /    A nd           | Version:  12
     \\/     M anipulation  |
\*---------------------------------------------------------------------------*/
FoamFile
{
    format      ascii;
    class       volScalarField;
    location    "0.7";
    object      nut;
}
// * * * * * * * * * * * * * * * * * * * * * * * * * * * * * * * * * * * * * //

dimensions      [0 2 -1 0 0 0 0];

internalField   nonuniform List<scalar> 
1600
(
6.28405e-08
2.33832e-07
4.14953e-07
5.58761e-07
6.68038e-07
7.50137e-07
8.11176e-07
8.55992e-07
8.88548e-07
9.12109e-07
9.29324e-07
9.42277e-07
9.52543e-07
9.61269e-07
9.69261e-07
9.77067e-07
9.8505e-07
9.93445e-07
1.00239e-06
1.01196e-06
1.02212e-06
1.03278e-06
1.0437e-06
1.05454e-06
1.06521e-06
1.07667e-06
1.08653e-06
1.09285e-06
1.095e-06
1.09062e-06
1.07688e-06
1.0512e-06
1.01045e-06
9.51182e-07
8.69548e-07
7.61281e-07
6.21609e-07
4.4616e-07
2.38471e-07
6.29115e-08
2.38066e-07
6.57719e-06
1.20498e-05
1.53961e-05
1.7658e-05
1.92841e-05
2.04875e-05
2.1386e-05
2.2058e-05
2.25614e-05
2.29414e-05
2.32347e-05
2.34705e-05
2.36719e-05
2.38563e-05
2.40365e-05
2.42222e-05
2.442e-05
2.46346e-05
2.4869e-05
2.5124e-05
2.5398e-05
2.5685e-05
2.5971e-05
2.62326e-05
2.64224e-05
2.6565e-05
2.66357e-05
2.66252e-05
2.64791e-05
2.61622e-05
2.56259e-05
2.48119e-05
2.36479e-05
2.20397e-05
1.98603e-05
1.68975e-05
1.27366e-05
6.40605e-06
2.32368e-07
4.38716e-07
1.26799e-05
2.45242e-05
3.20967e-05
3.72708e-05
4.09829e-05
4.37279e-05
4.57873e-05
4.73247e-05
4.8469e-05
4.93231e-05
4.99695e-05
5.04743e-05
5.08889e-05
5.12527e-05
5.15943e-05
5.1934e-05
5.22855e-05
5.26571e-05
5.30526e-05
5.34711e-05
5.39062e-05
5.43446e-05
5.47641e-05
5.51331e-05
5.54138e-05
5.5569e-05
5.55817e-05
5.53638e-05
5.48452e-05
5.39453e-05
5.2568e-05
5.05998e-05
4.78994e-05
4.42796e-05
3.94639e-05
3.30186e-05
2.41985e-05
1.14936e-05
4.07545e-07
6.08224e-07
1.67016e-05
3.31264e-05
4.41189e-05
5.18086e-05
5.74192e-05
6.15841e-05
6.46857e-05
6.69987e-05
6.87188e-05
6.99976e-05
7.09564e-05
7.16925e-05
7.22821e-05
7.27832e-05
7.32384e-05
7.36777e-05
7.41208e-05
7.4579e-05
7.50564e-05
7.55502e-05
7.60499e-05
7.65366e-05
7.69817e-05
7.73475e-05
7.75706e-05
7.76315e-05
7.74338e-05
7.68855e-05
7.58889e-05
7.43313e-05
7.20834e-05
6.89939e-05
6.48779e-05
5.94942e-05
5.2499e-05
4.33588e-05
3.11753e-05
1.4471e-05
5.42728e-07
7.44299e-07
1.95807e-05
3.94059e-05
5.30861e-05
6.28277e-05
6.99941e-05
7.5348e-05
7.93629e-05
8.23673e-05
8.4605e-05
8.6267e-05
8.75068e-05
8.84479e-05
8.91876e-05
8.98004e-05
9.03413e-05
9.0849e-05
9.13486e-05
9.18543e-05
9.23705e-05
9.28925e-05
9.34062e-05
9.38867e-05
9.42976e-05
9.4589e-05
9.46745e-05
9.45631e-05
9.4081e-05
9.31469e-05
9.16416e-05
8.94323e-05
8.63698e-05
8.2282e-05
7.69618e-05
7.01415e-05
6.14446e-05
5.02896e-05
3.57131e-05
1.63757e-05
6.41192e-07
8.52031e-07
2.174e-05
4.41636e-05
5.99868e-05
7.14135e-05
7.98957e-05
8.62753e-05
9.10858e-05
9.47001e-05
9.73986e-05
9.94031e-05
0.000100893
0.000102014
0.000102881
0.000103582
0.000104185
0.000104735
0.000105262
0.000105784
0.000106304
0.000106818
0.000107305
0.000107737
0.00010807
0.000108222
0.000108155
0.000107807
0.000107011
0.000105672
0.00010366
0.00010083
9.70233e-05
9.20583e-05
8.572e-05
7.7733e-05
6.77107e-05
5.50565e-05
3.87375e-05
1.76206e-05
7.10185e-07
9.36547e-07
2.33957e-05
4.7843e-05
6.53901e-05
7.82045e-05
8.77947e-05
9.50534e-05
0.000100555
0.000104706
0.000107813
0.000110122
0.000111835
0.000113114
0.000114089
0.000114861
0.000115508
0.000116081
0.000116616
0.000117132
0.000117634
0.000118114
0.000118549
0.000118904
0.000119125
0.000119121
0.000118869
0.000118259
0.000117137
0.000115391
0.000112886
0.000109472
0.000104986
9.92482e-05
9.20443e-05
8.3103e-05
7.20424e-05
5.82707e-05
4.0702e-05
1.84e-05
7.5605e-07
1.00222e-06
2.46743e-05
5.0718e-05
6.9654e-05
8.3609e-05
9.41268e-05
0.000102134
0.000108232
0.000112849
0.000116315
0.000118894
0.000120803
0.000122219
0.000123286
0.000124116
0.000124792
0.000125375
0.000125905
0.000126401
0.00012687
0.000127301
0.000127668
0.000127931
0.000128012
0.000127858
0.000127394
0.00012651
0.000125064
0.000122916
0.000119936
0.000115972
0.000110864
0.000104437
9.64872e-05
8.67556e-05
7.48748e-05
6.0269e-05
4.18522e-05
1.87704e-05
7.81436e-07
1.05276e-06
2.56642e-05
5.29704e-05
7.30236e-05
8.79116e-05
9.92005e-05
0.000107838
0.000114444
0.000119465
0.000123242
0.000126056
0.000128135
0.00012967
0.000130814
0.000131688
0.000132384
0.000132969
0.000133484
0.000133952
0.000134379
0.000134753
0.000135044
0.000135206
0.000135144
0.000134835
0.000134157
0.000132994
0.00013123
0.000128692
0.000125254
0.000120769
0.000115081
0.000108028
9.94216e-05
8.90224e-05
7.64851e-05
6.12563e-05
4.22872e-05
1.8772e-05
7.89296e-07
1.09132e-06
2.64298e-05
5.47325e-05
7.568e-05
9.13261e-05
0.00010325
0.000112413
0.000119448
0.000124811
0.000128855
0.000131869
0.000134094
0.000135729
0.000136936
0.000137845
0.000138554
0.000139134
0.00013963
0.000140067
0.00014045
0.000140764
0.000140978
0.00014104
0.000140845
0.000140378
0.00013949
0.000138062
0.000135969
0.000133065
0.000129183
0.000124193
0.000117951
0.000110309
0.000101103
9.01219e-05
7.70533e-05
6.13749e-05
4.21106e-05
1.85603e-05
7.87239e-07
1.12058e-06
2.70203e-05
5.6106e-05
7.77655e-05
9.40225e-05
0.000106464
0.000116061
0.000123451
0.0001291
0.000133367
0.00013655
0.000138897
0.000140615
0.000141874
0.00014281
0.000143527
0.000144099
0.000144575
0.000144981
0.000145322
0.000145582
0.000145724
0.000145695
0.000145381
0.000144759
0.000143674
0.000141996
0.000139584
0.000136295
0.00013199
0.00012649
0.000119687
0.000111457
0.000101668
9.01557e-05
7.66582e-05
6.07075e-05
4.147e-05
1.80814e-05
7.74185e-07
1.14278e-06
2.74752e-05
5.71731e-05
7.93956e-05
9.61407e-05
0.000109
0.000118948
0.00012663
0.000132513
0.000136964
0.000140286
0.000142733
0.000144518
0.000145819
0.000146775
0.000147496
0.00014806
0.000148518
0.000148898
0.000149204
0.000149418
0.000149501
0.000149393
0.000148986
0.000148212
0.000146947
0.000145028
0.000142304
0.000138618
0.00013381
0.0001278
0.000120373
0.000111491
0.000101076
8.90385e-05
7.52046e-05
5.91967e-05
4.02311e-05
1.73369e-05
7.51272e-07
1.15978e-06
2.78264e-05
5.80013e-05
8.06668e-05
9.77985e-05
0.00011099
0.00012122
0.000129135
0.000135207
0.000139806
0.000143239
0.000145766
0.000147605
0.000148937
0.000149909
0.000150633
0.000151191
0.000151636
0.000151997
0.000152278
0.000152459
0.000152498
0.000152328
0.000151857
0.000150941
0.0001495
0.000147339
0.00014428
0.000140145
0.000134768
0.000127999
0.000119881
0.000110184
9.89908e-05
8.63611e-05
7.22836e-05
5.63675e-05
3.81925e-05
1.62885e-05
7.18464e-07
1.17309e-06
2.80998e-05
5.86468e-05
8.16598e-05
9.90955e-05
0.000112549
0.000123
0.000131099
0.000137319
0.000142034
0.000145554
0.000148142
0.000150021
0.000151378
0.000152361
0.000153088
0.000153643
0.000154082
0.000154433
0.000154702
0.000154866
0.00015488
0.000154668
0.000154129
0.000153133
0.000151479
0.000149039
0.000145569
0.000140853
0.000134699
0.000126966
0.000117591
0.00010694
9.46693e-05
8.12537e-05
6.67649e-05
5.15069e-05
3.48299e-05
1.47826e-05
6.72357e-07
1.18391e-06
2.83167e-05
5.91557e-05
8.2442e-05
0.000100116
0.000113773
0.000124396
0.000132636
0.000138968
0.00014377
0.000147354
0.000149987
0.000151896
0.00015327
0.000154263
0.000154994
0.00015555
0.000155989
0.000156341
0.00015661
0.000156774
0.00015678
0.000156545
0.00015595
0.000154837
0.000153003
0.000150173
0.000146101
0.000140549
0.000133255
0.000124068
0.00011301
0.000100484
8.70317e-05
7.20151e-05
5.72447e-05
4.31355e-05
2.90668e-05
1.24295e-05
6.03453e-07
1.19315e-06
2.84941e-05
5.9566e-05
8.30691e-05
0.000100928
0.000114742
0.000125495
0.00013384
0.000140255
0.000145119
0.000148748
0.000151411
0.00015334
0.000154725
0.000155725
0.00015646
0.000157021
0.000157468
0.000157831
0.000158114
0.000158292
0.000158305
0.000158055
0.000157399
0.000156135
0.000154004
0.000150682
0.000145746
0.000138853
0.000129907
0.000118612
0.000105147
8.99927e-05
7.43082e-05
5.82064e-05
4.32652e-05
3.06463e-05
1.98565e-05
8.61354e-06
4.93995e-07
1.20152e-06
2.86455e-05
5.99081e-05
8.3586e-05
0.000101591
0.000115524
0.000126372
0.000134792
0.000141263
0.000146168
0.000149825
0.000152506
0.000154445
0.000155836
0.00015684
0.000157581
0.000158151
0.000158611
0.000158993
0.0001593
0.000159502
0.000159528
0.000159258
0.000158511
0.000157022
0.000154443
0.000150342
0.000144243
0.00013538
0.000124118
0.000110011
9.34644e-05
7.51098e-05
5.76282e-05
4.20603e-05
2.95296e-05
2.03403e-05
1.26199e-05
4.67965e-06
3.70664e-07
1.20953e-06
2.87815e-05
6.02061e-05
8.40287e-05
0.000102149
0.000116171
0.000127087
0.000135556
0.000142062
0.000146989
0.000150659
0.000153346
0.000155287
0.000156679
0.000157684
0.00015843
0.000159011
0.000159489
0.000159896
0.000160232
0.000160461
0.000160494
0.000160181
0.000159281
0.000157446
0.00015421
0.000149003
0.000141222
0.000129901
0.000115685
9.82681e-05
7.8459e-05
5.83858e-05
4.10196e-05
2.97373e-05
2.14597e-05
1.5301e-05
8.89147e-06
3.09595e-06
3.55298e-07
1.21761e-06
2.89102e-05
6.04791e-05
8.44256e-05
0.000102639
0.000116727
0.000127688
0.000136186
0.000142707
0.00014764
0.000151309
0.000153991
0.000155926
0.000157313
0.000158317
0.000159067
0.000159658
0.000160154
0.000160587
0.000160953
0.000161202
0.000161224
0.00016082
0.000159679
0.000157343
0.000153206
0.000146555
0.000136647
0.000122383
0.000105063
8.4445e-05
6.26578e-05
4.35324e-05
3.09009e-05
2.55409e-05
2.32869e-05
1.88979e-05
1.07324e-05
3.24186e-06
6.54309e-07
1.22606e-06
2.90383e-05
6.07418e-05
8.47989e-05
0.000103088
0.000117225
0.000128212
0.00013672
0.000143241
0.000148165
0.00015182
0.000154488
0.000156408
0.000157785
0.000158783
0.000159534
0.000160133
0.000160646
0.000161102
0.000161489
0.000161743
0.00016172
0.000161165
0.000159677
0.000156678
0.000151427
0.000143103
0.000130573
0.000113592
9.32316e-05
7.03594e-05
4.8687e-05
3.63189e-05
3.1662e-05
3.23709e-05
3.1933e-05
2.84694e-05
1.78211e-05
6.48313e-06
1.98497e-06
1.23516e-06
2.91712e-05
6.10062e-05
8.51661e-05
0.00010352
0.000117689
0.000128687
0.00013719
0.000143695
0.000148597
0.000152227
0.00015487
0.000156769
0.000158128
0.000159115
0.000159862
0.000160465
0.000160989
0.000161459
0.000161855
0.00016209
0.00016198
0.000161208
0.000159276
0.000155492
0.000149003
0.000138918
0.000123663
0.000104531
8.19865e-05
5.86881e-05
4.36651e-05
3.70212e-05
4.05854e-05
4.25135e-05
4.12052e-05
3.8267e-05
2.69778e-05
1.20894e-05
4.63435e-06
1.24517e-06
2.93135e-05
6.12823e-05
8.55411e-05
0.00010395
0.00011814
0.000129135
0.000137618
0.000144093
0.000148959
0.000152553
0.000155162
0.000157031
0.000158366
0.000159336
0.000160072
0.000160673
0.0001612
0.000161673
0.000162059
0.000162247
0.000162011
0.000160966
0.000158529
0.000153917
0.000146213
0.000134287
0.000117165
9.64411e-05
7.29467e-05
5.30422e-05
4.23385e-05
4.26831e-05
5.07522e-05
5.29954e-05
5.09041e-05
4.73096e-05
3.70713e-05
1.80681e-05
7.18715e-06
1.25637e-06
2.94696e-05
6.15786e-05
8.59354e-05
0.000104392
0.000118592
0.00012957
0.000138019
0.00014445
0.000149269
0.000152815
0.000155381
0.000157211
0.000158514
0.000159457
0.000160176
0.000160766
0.000161286
0.00016175
0.000162108
0.000162224
0.000161831
0.000160486
0.000157542
0.000152163
0.000143427
0.000129897
0.000111914
9.04164e-05
6.71663e-05
5.13068e-05
4.39704e-05
4.92181e-05
5.88995e-05
6.30085e-05
6.05709e-05
5.59388e-05
4.63224e-05
2.45714e-05
8.83745e-06
1.26904e-06
2.9644e-05
6.1903e-05
8.63587e-05
0.000104856
0.000119054
0.000130001
0.000138402
0.000144775
0.000149533
0.000153021
0.000155532
0.000157315
0.000158576
0.000159484
0.000160177
0.000160748
0.000161251
0.000161693
0.000162009
0.000162038
0.000161477
0.000159842
0.000156448
0.000150451
0.000140989
0.000126689
0.000108584
8.69536e-05
6.46853e-05
5.09405e-05
4.61637e-05
5.35937e-05
6.31439e-05
6.9122e-05
6.86172e-05
6.26743e-05
5.41754e-05
3.10714e-05
1.03648e-05
1.28355e-06
2.98413e-05
6.2263e-05
8.68192e-05
0.00010535
0.000119533
0.000130434
0.000138769
0.000145069
0.000149753
0.00015317
0.000155617
0.000157343
0.000158555
0.000159432
0.000160098
0.000160645
0.000161124
0.000161531
0.000161789
0.000161715
0.000160991
0.000159119
0.000155426
0.000149139
0.000139389
0.000124911
0.000106657
8.50883e-05
6.38743e-05
5.1355e-05
4.77098e-05
5.54876e-05
6.54828e-05
7.2168e-05
7.54393e-05
6.87384e-05
6.09909e-05
3.70833e-05
1.1753e-05
1.30029e-06
3.00665e-05
6.26656e-05
8.73232e-05
0.000105877
0.00012003
0.000130866
0.000139118
0.000145326
0.00014992
0.000153253
0.000155624
0.000157282
0.000158441
0.000159266
0.000159891
0.000160405
0.000160856
0.000161235
0.000161461
0.000161331
0.000160517
0.000158532
0.000154715
0.000148258
0.000138197
0.000123891
0.000106164
8.56193e-05
6.52854e-05
5.29639e-05
4.91234e-05
5.60247e-05
6.62991e-05
7.48496e-05
7.96145e-05
7.47177e-05
6.65926e-05
4.2603e-05
1.29267e-05
1.31975e-06
3.03247e-05
6.31171e-05
8.78748e-05
0.000106438
0.000120539
0.000131288
0.000139433
0.000145529
0.000150013
0.000153246
0.000155527
0.000157109
0.000158201
0.000158972
0.000159551
0.000160028
0.000160445
0.000160789
0.000160967
0.000160785
0.00015991
0.000157852
0.000153974
0.000147585
0.000137799
0.000124343
0.000107598
8.81935e-05
6.86482e-05
5.56566e-05
5.04331e-05
5.58258e-05
6.61904e-05
7.60504e-05
8.19501e-05
7.98209e-05
7.09158e-05
4.71838e-05
1.40518e-05
1.34248e-06
3.06211e-05
6.36231e-05
8.84736e-05
0.000107026
0.000121048
0.000131677
0.000139685
0.000145641
0.000149991
0.000153101
0.000155276
0.000156768
0.000157788
0.000158503
0.000159036
0.000159474
0.000159858
0.000160169
0.000160317
0.000160111
0.000159233
0.000157242
0.000153567
0.000147539
0.000138371
0.000125968
0.000110485
9.25611e-05
7.42598e-05
6.01536e-05
5.3379e-05
5.64521e-05
6.65421e-05
7.74146e-05
8.39631e-05
8.37175e-05
7.44031e-05
5.11977e-05
1.50396e-05
1.3691e-06
3.09603e-05
6.41896e-05
8.91124e-05
0.000107622
0.000121524
0.000131991
0.00013982
0.000145594
0.000149773
0.00015273
0.000154775
0.000156157
0.000157087
0.000157728
0.000158202
0.000158591
0.000158934
0.00015922
0.000159371
0.000159208
0.000158422
0.000156581
0.00015321
0.000147801
0.000139587
0.000128497
0.000114573
9.84346e-05
8.14034e-05
6.72033e-05
5.95725e-05
5.99507e-05
6.85321e-05
7.96722e-05
8.62006e-05
8.62582e-05
7.69916e-05
5.44354e-05
1.59566e-05
1.40029e-06
3.13473e-05
6.48123e-05
8.9775e-05
0.000108192
0.000121913
0.000132152
0.000139735
0.000145266
0.000149215
0.000151963
0.000153822
0.000155043
0.000155828
0.000156339
0.000156697
0.000156989
0.000157261
0.000157509
0.000157665
0.000157578
0.000156994
0.000155528
0.00015268
0.000147958
0.000140995
0.000131515
0.000119421
0.000105043
8.9728e-05
7.59767e-05
6.80388e-05
6.69611e-05
7.32832e-05
8.28306e-05
8.8031e-05
8.73058e-05
7.87651e-05
5.69717e-05
1.67984e-05
1.43678e-06
3.17858e-05
6.54805e-05
9.04257e-05
0.000108667
0.000122107
0.000132013
0.000139243
0.000144425
0.000148043
0.000150486
0.00015206
0.000153022
0.000153574
0.000153876
0.000154049
0.000154183
0.000154329
0.000154496
0.000154637
0.000154632
0.000154273
0.000153238
0.000151094
0.000147338
0.000141483
0.000133405
0.000123355
0.000111379
9.83852e-05
8.61978e-05
7.84112e-05
7.5986e-05
7.94929e-05
8.62282e-05
8.92788e-05
8.79429e-05
7.98383e-05
5.91289e-05
1.75821e-05
1.47951e-06
3.22758e-05
6.61691e-05
9.09941e-05
0.000108914
0.000121904
0.000131294
0.000137987
0.000142638
0.000145759
0.000147727
0.000148861
0.000149417
0.000149598
0.000149562
0.00014943
0.000149293
0.000149212
0.000149208
0.000149262
0.000149291
0.000149143
0.000148568
0.000147217
0.000144657
0.000140425
0.000134196
0.000126044
0.000116218
0.00010536
9.50842e-05
8.8225e-05
8.48591e-05
8.49369e-05
8.83272e-05
8.9551e-05
8.74714e-05
8.00472e-05
6.07399e-05
1.83161e-05
1.52979e-06
3.28084e-05
6.68231e-05
9.13366e-05
0.000108663
0.00012089
0.000129435
0.000135282
0.000139123
0.000141455
0.000142688
0.000143147
0.000143086
0.000142705
0.000142157
0.000141559
0.000141005
0.000140558
0.000140254
0.000140099
0.000140055
0.000140021
0.000139823
0.000139205
0.000137837
0.000135332
0.000131322
0.000125732
0.000118761
0.000110472
0.000102021
9.57017e-05
9.1352e-05
8.88071e-05
8.8511e-05
8.79539e-05
8.57966e-05
7.96717e-05
6.20682e-05
1.90188e-05
1.5902e-06
3.3381e-05
6.73202e-05
9.11351e-05
0.000107312
0.000118209
0.000125408
0.000129919
0.000132466
0.000133607
0.000133768
0.000133277
0.000132379
0.000131262
0.000130066
0.000128896
0.000127831
0.000126935
0.000126256
0.000125816
0.000125608
0.00012558
0.000125626
0.000125573
0.000125172
0.000124124
0.000122117
0.000118872
0.000114633
0.000109059
0.000102729
9.73225e-05
9.27535e-05
8.89242e-05
8.68206e-05
8.6599e-05
8.44479e-05
7.87393e-05
6.26972e-05
1.97028e-05
1.65858e-06
3.39763e-05
6.73503e-05
8.95806e-05
0.000103674
0.000112365
0.00011735
0.000119791
0.000120505
0.000120082
0.000118948
0.000117408
0.000115679
0.000113917
0.000112229
0.000110694
0.000109369
0.000108299
0.000107516
0.000107042
0.000106868
0.000106962
0.000107255
0.000107642
0.00010795
0.000107957
0.000107412
0.000106083
0.000103773
0.000100772
9.66893e-05
9.26871e-05
8.88434e-05
8.53506e-05
8.30781e-05
8.30161e-05
8.1963e-05
7.7074e-05
6.19879e-05
2.04234e-05
1.75482e-06
3.45053e-05
6.6114e-05
8.51623e-05
9.55339e-05
0.000100619
0.000102478
0.000102397
0.000101204
9.9435e-05
9.7436e-05
9.54263e-05
9.35447e-05
9.18793e-05
9.04853e-05
8.93854e-05
8.85894e-05
8.81035e-05
8.79317e-05
8.80803e-05
8.85139e-05
8.91809e-05
9.00286e-05
9.1e-05
9.20089e-05
9.28793e-05
9.34333e-05
9.34854e-05
9.28865e-05
9.16046e-05
8.96459e-05
8.73439e-05
8.48299e-05
8.23328e-05
8.05424e-05
8.01104e-05
7.96449e-05
7.50481e-05
6.06328e-05
2.08355e-05
1.85139e-06
3.44832e-05
6.21992e-05
7.48601e-05
7.96152e-05
8.06179e-05
7.98661e-05
7.83865e-05
7.67239e-05
7.51585e-05
7.38282e-05
7.27958e-05
7.20885e-05
7.17214e-05
7.17183e-05
7.20281e-05
7.25985e-05
7.33939e-05
7.43967e-05
7.56439e-05
7.70863e-05
7.86226e-05
8.02001e-05
8.17655e-05
8.32468e-05
8.46016e-05
8.57336e-05
8.65657e-05
8.69983e-05
8.69617e-05
8.64162e-05
8.53751e-05
8.4097e-05
8.24971e-05
8.10661e-05
7.95103e-05
7.7775e-05
7.20515e-05
5.88207e-05
2.10085e-05
2.05985e-06
3.36158e-05
5.24567e-05
5.71988e-05
5.81432e-05
5.81544e-05
5.79826e-05
5.79114e-05
5.80471e-05
5.84145e-05
5.90064e-05
5.98058e-05
6.07981e-05
6.19868e-05
6.3498e-05
6.51936e-05
6.69598e-05
6.87526e-05
7.05535e-05
7.2301e-05
7.39735e-05
7.56018e-05
7.71832e-05
7.87095e-05
8.01564e-05
8.15029e-05
8.26668e-05
8.36422e-05
8.43945e-05
8.48744e-05
8.50611e-05
8.48783e-05
8.44129e-05
8.34782e-05
8.2122e-05
7.97741e-05
7.61245e-05
6.71534e-05
5.4941e-05
2.09035e-05
2.22273e-06
2.94176e-05
3.98494e-05
4.34225e-05
4.60123e-05
4.83642e-05
5.04973e-05
5.24695e-05
5.43116e-05
5.6047e-05
5.76982e-05
5.92839e-05
6.08199e-05
6.23365e-05
6.37299e-05
6.50197e-05
6.62498e-05
6.74431e-05
6.86117e-05
6.9747e-05
7.08435e-05
7.19e-05
7.29167e-05
7.38892e-05
7.48129e-05
7.56708e-05
7.64792e-05
7.72079e-05
7.78575e-05
7.83604e-05
7.876e-05
7.89792e-05
7.8957e-05
7.86357e-05
7.77024e-05
7.53761e-05
7.09e-05
6.13785e-05
4.61288e-05
1.96608e-05
1.5838e-06
2.5571e-06
4.05218e-06
5.44541e-06
6.72917e-06
7.90507e-06
8.99677e-06
1.00308e-05
1.1024e-05
1.19834e-05
1.2911e-05
1.38101e-05
1.46787e-05
1.5526e-05
1.63473e-05
1.7136e-05
1.78949e-05
1.86204e-05
1.93219e-05
1.99929e-05
2.06445e-05
2.12657e-05
2.18711e-05
2.24453e-05
2.30045e-05
2.35297e-05
2.40341e-05
2.4501e-05
2.49298e-05
2.53122e-05
2.56173e-05
2.58559e-05
2.59543e-05
2.59238e-05
2.585e-05
2.56843e-05
2.53224e-05
2.45817e-05
2.30265e-05
1.85971e-05
)
;

boundaryField
{
    movingWall
    {
        type            nutkWallFunction;
        Cmu             0.09;
        kappa           0.41;
        E               9.8;
        value           uniform 0;
    }
    fixedWalls
    {
        type            nutkWallFunction;
        Cmu             0.09;
        kappa           0.41;
        E               9.8;
        value           uniform 0;
    }
    frontAndBack
    {
        type            empty;
    }
}


// ************************************************************************* //
