/*--------------------------------*- C++ -*----------------------------------*\
  =========                 |
  \\      /  F ield         | OpenFOAM: The Open Source CFD Toolbox
   \\    /   O peration     | Website:  https://openfoam.org
    \\  /    A nd           | Version:  12
     \\/     M anipulation  |
\*---------------------------------------------------------------------------*/
FoamFile
{
    format      ascii;
    class       volScalarField;
    location    "0.7";
    object      p;
}
// * * * * * * * * * * * * * * * * * * * * * * * * * * * * * * * * * * * * * //

dimensions      [0 2 -2 0 0 0 0];

internalField   nonuniform List<scalar> 
1600
(
2.10255e-08
-3.63867e-06
-6.67842e-06
-7.13423e-06
-3.59116e-06
4.75374e-06
1.8372e-05
3.75428e-05
6.24437e-05
9.32036e-05
0.000129933
0.000172744
0.000221756
0.000277097
0.000338906
0.00040732
0.000482467
0.000564448
0.000653319
0.00074907
0.000851595
0.000960653
0.0010758
0.00119637
0.00132184
0.00145118
0.00158253
0.0017144
0.00184478
0.00197131
0.00209146
0.00220251
0.00230178
0.00238669
0.0024551
0.00250567
0.00253827
0.00255436
0.00255774
0.00255365
3.63707e-06
-3.26811e-09
-1.8471e-06
-7.63366e-07
4.29144e-06
1.38569e-05
2.83525e-05
4.80849e-05
7.32747e-05
0.000104093
0.000140689
0.000183201
0.000231769
0.000286535
0.000347646
0.000415239
0.000489441
0.000570348
0.000658008
0.000752405
0.000853426
0.000960828
0.0010742
0.001193
0.00131657
0.00144358
0.00157285
0.00170271
0.00183122
0.00195614
0.00207505
0.00218537
0.00228449
0.00237003
0.00244003
0.00249318
0.00252909
0.00254839
0.00255379
0.00254972
6.83912e-06
1.79944e-06
-2.28531e-07
2.08648e-06
8.91914e-06
2.00893e-05
3.58026e-05
5.63521e-05
8.19935e-05
0.000112942
0.00014939
0.000191513
0.000239481
0.000293462
0.000353618
0.000420102
0.000493048
0.000572561
0.000658698
0.000751453
0.000850727
0.000956301
0.00106781
0.00118475
0.00130639
0.00143167
0.00155932
0.0016878
0.00181527
0.00193962
0.00205854
0.00216957
0.00227026
0.00235834
0.00243185
0.00248939
0.00252991
0.00255242
0.00255814
0.00255244
7.17002e-06
2.21426e-07
-3.62825e-06
-1.68534e-06
5.78243e-06
1.78392e-05
3.43453e-05
5.54684e-05
8.14199e-05
0.000112409
0.000148642
0.000190318
0.000237634
0.000290781
0.00034995
0.000415319
0.000487053
0.000565284
0.000650105
0.000741546
0.000839553
0.000943963
0.00105448
0.00117063
0.00129176
0.00141694
0.00154495
0.00167431
0.00180326
0.00192974
0.00205144
0.0021659
0.0022706
0.00236313
0.00244131
0.00250328
0.00254713
0.00257034
0.00257368
0.00256508
2.76802e-06
-6.21526e-06
-1.26872e-05
-1.23499e-05
-5.45579e-06
6.52179e-06
2.31062e-05
4.42893e-05
7.01888e-05
0.000100968
0.000136815
0.000177932
0.000224529
0.000276822
0.00033503
0.000399368
0.000470041
0.000547231
0.000631087
0.000721701
0.000819093
0.000923182
0.00103375
0.00115042
0.00127261
0.00139957
0.00153009
0.00166274
0.00179578
0.00192711
0.00205434
0.00217482
0.00228577
0.00238438
0.00246803
0.00253424
0.00258021
0.00260237
0.00260201
0.00259002
-7.486e-06
-1.83029e-05
-2.74014e-05
-2.91288e-05
-2.35011e-05
-1.22988e-05
3.75197e-06
2.44874e-05
4.99242e-05
8.01643e-05
0.000115364
0.000155717
0.000201437
0.000252762
0.00030994
0.000373227
0.000442881
0.000519146
0.000602243
0.000692349
0.00078958
0.000893961
0.00100539
0.0011236
0.00124802
0.00137836
0.00151315
0.00165111
0.00179048
0.00192907
0.00206429
0.00219316
0.00231246
0.00241885
0.00250903
0.00257984
0.00262764
0.00264825
0.00264395
0.00262843
-2.41757e-05
-3.65313e-05
-4.79788e-05
-5.18413e-05
-4.78197e-05
-3.78356e-05
-2.27773e-05
-2.9253e-06
2.16528e-05
5.10017e-05
8.52443e-05
0.000124559
0.000169166
0.000219318
0.000275296
0.000337404
0.000405956
0.00048127
0.000563654
0.000653391
0.000750713
0.000855779
0.000968643
0.00108923
0.00121731
0.00135184
0.00149235
0.00163743
0.00178522
0.00193341
0.0020791
0.00221888
0.00234892
0.00246512
0.00256338
0.00263968
0.00268961
0.00270862
0.00270025
0.00268094
-4.75173e-05
-6.1124e-05
-7.46024e-05
-8.05256e-05
-7.8269e-05
-6.97922e-05
-5.60758e-05
-3.74775e-05
-1.41267e-05
1.3975e-05
4.69217e-05
8.48792e-05
0.000128071
0.000176769
0.000231288
0.000291979
0.000359222
0.000433419
0.000514977
0.0006043
0.00070176
0.000807675
0.000922277
0.00104566
0.00117771
0.0013179
0.00146557
0.00161948
0.00177778
0.00193798
0.00209685
0.00225043
0.00239407
0.00252269
0.0026311
0.00271429
0.00276696
0.00278434
0.00277152
0.00274788
-7.74791e-05
-9.21013e-05
-0.000107318
-0.000115182
-0.000114756
-0.00010798
-9.58774e-05
-7.88507e-05
-5.70703e-05
-3.05706e-05
7.20514e-07
3.69602e-05
7.83767e-05
0.000125262
0.000177964
0.000236888
0.000302481
0.000375236
0.000455672
0.000544328
0.000641739
0.000748412
0.000864792
0.000991207
0.00112776
0.00127427
0.00143023
0.00159453
0.00176539
0.00194016
0.00211525
0.00228598
0.00244673
0.00259109
0.00271245
0.00280441
0.00286065
0.00287616
0.00285808
0.00282919
-0.000113872
-0.00012934
-0.000146054
-0.000155734
-0.000157161
-0.000152221
-0.000141952
-0.000126777
-0.00010689
-8.23469e-05
-5.30903e-05
-1.8968e-05
2.02546e-05
6.4889e-05
0.00011532
0.000172001
0.000235455
0.000306267
0.000385077
0.000472572
0.000569472
0.000676499
0.000794357
0.000923655
0.00106482
0.00121798
0.00138305
0.00155908
0.00174446
0.00193647
0.00213114
0.00232303
0.00250522
0.00266962
0.00280759
0.00291083
0.00297157
0.00298463
0.00295986
0.00292421
-0.000156423
-0.000172613
-0.000190643
-0.000202033
-0.000205318
-0.000202322
-0.000194075
-0.000181007
-0.000163324
-0.000141094
-0.000114269
-8.27013e-05
-4.6148e-05
-4.27967e-06
4.33209e-05
9.71583e-05
0.000157825
0.000226
0.000302448
0.000388015
0.000483618
0.000590225
0.000708834
0.000840396
0.000985769
0.0011456
0.00131996
0.00150862
0.00171022
0.00192213
0.0021401
0.00235784
0.0025669
0.00275688
0.00291634
0.00303415
0.00310047
0.00310994
0.00307611
0.00303134
-0.000204802
-0.00022162
-0.000240838
-0.00025386
-0.000259014
-0.000258056
-0.000252003
-0.000241283
-0.000226106
-0.00020655
-0.000182574
-0.000154031
-0.000120676
-8.21649e-05
-3.80526e-05
1.2209e-05
6.9276e-05
0.000133917
0.000207017
0.000289582
0.000382733
0.000487704
0.000605821
0.00073844
0.000886904
0.00105242
0.0012358
0.00143737
0.00165637
0.00189057
0.00213574
0.00238482
0.00262749
0.0028503
0.00303779
0.0031746
0.00324773
0.00325147
0.00320485
0.00314755
-0.000258633
-0.000276013
-0.000296334
-0.000310937
-0.000317978
-0.000319151
-0.000315456
-0.000307316
-0.000294945
-0.000278427
-0.000257731
-0.000232715
-0.000203135
-0.000168641
-0.000128769
-8.29405e-05
-3.04472e-05
2.95545e-05
9.8057e-05
0.000176213
0.000265346
0.000366957
0.000482722
0.000614454
0.000764057
0.00093346
0.00112438
0.00133797
0.00157461
0.00183281
0.00210881
0.00239538
0.00268013
0.00294531
0.00316976
0.00333178
0.00341292
0.00340701
0.00334163
0.00326719
-0.000317505
-0.000335403
-0.000356776
-0.000372935
-0.000381893
-0.00038529
-0.000384112
-0.000378778
-0.000369507
-0.000356393
-0.000339417
-0.000318452
-0.000293262
-0.000263502
-0.000228706
-0.00018828
-0.000141487
-8.74314e-05
-2.50406e-05
4.69588e-05
0.000130065
0.000226025
0.000336858
0.000464854
0.000612551
0.000782692
0.000978072
0.00120114
0.0014541
0.00173666
0.00204637
0.00237662
0.00271373
0.00303428
0.0033088
0.00350526
0.00359553
0.0035726
0.00347795
0.00338045
-0.000380976
-0.00039937
-0.000421769
-0.000439478
-0.000450393
-0.000456108
-0.000457599
-0.000455288
-0.000449403
-0.000440054
-0.000427241
-0.00041086
-0.000390697
-0.000366429
-0.000337606
-0.000303645
-0.000263809
-0.000217188
-0.000162669
-9.89097e-05
-2.42898e-05
6.31295e-05
0.000165659
0.00028603
0.00042743
0.000593507
0.00078835
0.00101635
0.00128121
0.00158586
0.00193019
0.00230956
0.00271075
0.00310514
0.00344986
0.00369457
0.00379521
0.00374258
0.00359971
0.0034715
-0.000448585
-0.000467465
-0.000490884
-0.000510152
-0.000523068
-0.000531192
-0.000535498
-0.000536414
-0.000534184
-0.000528945
-0.000520726
-0.000509456
-0.000494963
-0.00047696
-0.000455043
-0.000428669
-0.000397141
-0.000359582
-0.000314904
-0.000261763
-0.000198508
-0.00012311
-3.3075e-05
7.46549e-05
0.000203822
0.000358967
0.000545523
0.000769872
0.00103897
0.00135894
0.00173451
0.00216573
0.00264283
0.00313408
0.00357596
0.00388432
0.00399005
0.00389012
0.00367961
0.00351634
-0.000519852
-0.000539219
-0.000563664
-0.000584511
-0.000599475
-0.000610091
-0.000617338
-0.000621663
-0.000623335
-0.000622523
-0.0006193
-0.000613644
-0.000605439
-0.000594463
-0.000580382
-0.000562732
-0.000540906
-0.000514119
-0.000481385
-0.000441461
-0.000392788
-0.000333402
-0.000260814
-0.000171853
-6.24529e-05
7.25889e-05
0.000239951
0.000448259
0.000707663
0.00102836
0.00142295
0.00190024
0.0024571
0.00306028
0.00361886
0.0039957
0.00409938
0.00394393
0.00366467
0.0034844
-0.000594279
-0.000614146
-0.000639635
-0.000662083
-0.000679135
-0.000692311
-0.000702606
-0.00071049
-0.000716271
-0.000720161
-0.00072229
-0.0007227
-0.000721352
-0.000718113
-0.000712751
-0.000704925
-0.000694166
-0.000679858
-0.000661206
-0.000637192
-0.000606511
-0.000567473
-0.000517862
-0.000454732
-0.000374115
-0.000270632
-0.000136875
3.75834e-05
0.000265488
0.000562086
0.000944471
0.00143827
0.0020474
0.00272659
0.00335949
0.00377894
0.00392701
0.00379681
0.00352325
0.00339853
-0.000671364
-0.000691748
-0.000718307
-0.00074238
-0.000761549
-0.00077733
-0.000790743
-0.000802295
-0.000812339
-0.000821147
-0.000828915
-0.000835769
-0.000841764
-0.000846881
-0.000851024
-0.000854015
-0.000855582
-0.00085535
-0.00085282
-0.000847334
-0.000838028
-0.000823742
-0.00080288
-0.000773186
-0.000731427
-0.000672893
-0.000590477
-0.000473523
-0.000309534
-8.13618e-05
0.00023358
0.000656732
0.00119792
0.00177347
0.0022924
0.00277329
0.00318531
0.00334788
0.00331273
0.00344363
-0.000750599
-0.000771529
-0.000799188
-0.000824905
-0.0008462
-0.000864599
-0.000881157
-0.00089643
-0.000910826
-0.000924686
-0.000938292
-0.000951863
-0.00096557
-0.00097953
-0.000993812
-0.00100844
-0.00102339
-0.0010386
-0.00105398
-0.00106935
-0.00108449
-0.00109905
-0.00111244
-0.00112367
-0.00113106
-0.00113178
-0.00112071
-0.00109046
-0.00103307
-0.000939171
-0.00080319
-0.000632005
-0.000437166
-0.000179385
0.000245392
0.000969349
0.00180244
0.00247788
0.00302728
0.00373513
-0.000831484
-0.000852998
-0.000881795
-0.000909164
-0.000932569
-0.000953557
-0.000973232
-0.000992206
-0.00101096
-0.00102991
-0.00104944
-0.00106988
-0.00109151
-0.00111463
-0.00113947
-0.00116631
-0.00119542
-0.00122709
-0.00126172
-0.00129976
-0.00134179
-0.00138851
-0.00144074
-0.00149933
-0.00156507
-0.00163837
-0.00171843
-0.00180514
-0.00190045
-0.00201718
-0.00218979
-0.00242894
-0.00265509
-0.00273415
-0.00242137
-0.00161381
-0.000439313
0.000918059
0.00228697
0.00363693
-0.000913539
-0.000935688
-0.000965664
-0.000994682
-0.00102015
-0.00104364
-0.00106633
-0.00108891
-0.00111192
-0.0011359
-0.0011613
-0.00118859
-0.0012182
-0.00125057
-0.00128616
-0.00132548
-0.00136913
-0.00141782
-0.00147246
-0.00153423
-0.00160462
-0.00168559
-0.00177964
-0.00188992
-0.00202045
-0.00217595
-0.00236249
-0.00258971
-0.00287564
-0.00326684
-0.00382817
-0.00454205
-0.00520753
-0.00557916
-0.0053585
-0.00453966
-0.00314445
-0.00128601
0.000546071
0.00211469
-0.000996315
-0.00101917
-0.00105037
-0.00108102
-0.00110844
-0.0011343
-0.00115983
-0.0011858
-0.00121287
-0.00124166
-0.00127275
-0.00130671
-0.00134413
-0.00138562
-0.00143184
-0.00148357
-0.00154172
-0.00160743
-0.00168216
-0.00176779
-0.00186681
-0.00198247
-0.00211909
-0.00228234
-0.00247978
-0.00272108
-0.00302031
-0.00339809
-0.00389171
-0.00457565
-0.00552441
-0.00667485
-0.00773273
-0.00823788
-0.00806186
-0.00723693
-0.00577639
-0.00378852
-0.00189949
-0.000466849
-0.00107942
-0.00110306
-0.00113555
-0.00116778
-0.00119701
-0.001225
-0.00125309
-0.00128215
-0.00131294
-0.0013462
-0.00138261
-0.00142289
-0.00146775
-0.00151798
-0.00157442
-0.00163811
-0.00171025
-0.0017924
-0.00188652
-0.00199516
-0.00212173
-0.00227071
-0.0024481
-0.00266193
-0.002923
-0.00324572
-0.00365119
-0.00417081
-0.00485788
-0.00579124
-0.00704409
-0.00848904
-0.00973927
-0.0103459
-0.010218
-0.00944808
-0.00807647
-0.0061994
-0.00433501
-0.00316445
-0.00116254
-0.00118709
-0.00122093
-0.00125465
-0.00128547
-0.00131526
-0.00134551
-0.00137722
-0.00141126
-0.00144848
-0.00148971
-0.00153576
-0.00158748
-0.00164581
-0.00171177
-0.0017866
-0.0018718
-0.00196923
-0.00208131
-0.00221116
-0.00236292
-0.00254206
-0.00275591
-0.00301428
-0.00333042
-0.00372249
-0.00421592
-0.004849
-0.00568477
-0.00678896
-0.00821316
-0.00980619
-0.0111351
-0.0117866
-0.0117199
-0.0110509
-0.00986363
-0.00825529
-0.00650432
-0.00550757
-0.00124547
-0.00127108
-0.00130634
-0.00134142
-0.0013735
-0.00140465
-0.00143653
-0.0014703
-0.00150697
-0.00154751
-0.00159287
-0.00164397
-0.00170178
-0.00176735
-0.00184186
-0.00192671
-0.00202361
-0.00213468
-0.00226267
-0.0024111
-0.00258462
-0.00278934
-0.00303343
-0.00332773
-0.00368684
-0.00413068
-0.00468627
-0.0053934
-0.00630419
-0.00748515
-0.00895459
-0.0105563
-0.0118728
-0.0125296
-0.0125233
-0.0119722
-0.0109884
-0.0096645
-0.00823957
-0.00732291
-0.00132817
-0.00135502
-0.00139176
-0.001428
-0.0014609
-0.0014928
-0.00152562
-0.0015607
-0.00159922
-0.00164228
-0.00169094
-0.00174621
-0.00180917
-0.00188094
-0.00196281
-0.0020563
-0.00216326
-0.00228597
-0.00242737
-0.00259122
-0.00278241
-0.00300733
-0.00327442
-0.00359473
-0.00398289
-0.00445827
-0.00504589
-0.00577936
-0.00670705
-0.00787075
-0.00926922
-0.0107694
-0.0120011
-0.0126354
-0.0126864
-0.0122622
-0.0114743
-0.0104098
-0.00931519
-0.00848808
-0.0014108
-0.00143912
-0.0014774
-0.00151447
-0.00154755
-0.0015794
-0.00161227
-0.00164774
-0.00168717
-0.00173182
-0.00178281
-0.00184126
-0.0019083
-0.0019851
-0.00207299
-0.00217357
-0.00228875
-0.00242089
-0.00257299
-0.00274887
-0.00295341
-0.00319293
-0.00347557
-0.00381182
-0.0042151
-0.00470237
-0.00529468
-0.00601922
-0.00691078
-0.00798923
-0.00924353
-0.0105601
-0.0116435
-0.0122403
-0.0123417
-0.0120379
-0.0114215
-0.0105675
-0.00977183
-0.00901883
-0.00149386
-0.0015239
-0.0015637
-0.00160108
-0.00163345
-0.00166419
-0.00169598
-0.00173072
-0.00176998
-0.00181513
-0.00186741
-0.00192796
-0.00199794
-0.00207854
-0.00217102
-0.00227706
-0.00239856
-0.00253785
-0.00269791
-0.00288244
-0.00309616
-0.00334498
-0.00363635
-0.00397959
-0.00438627
-0.00487008
-0.00544696
-0.00613566
-0.00695565
-0.0079141
-0.00898627
-0.0100792
-0.010989
-0.011529
-0.0116611
-0.0114462
-0.0109532
-0.0102356
-0.0096567
-0.0089599
-0.00157828
-0.00161032
-0.00165144
-0.00168831
-0.0017187
-0.00174691
-0.00177622
-0.00180889
-0.00184672
-0.00189124
-0.0019437
-0.00200522
-0.00207703
-0.00216018
-0.00225582
-0.00236572
-0.00249166
-0.00263588
-0.00280124
-0.00299126
-0.00321035
-0.00346389
-0.0037584
-0.00410169
-0.00450302
-0.00497271
-0.00552155
-0.00616015
-0.00689579
-0.00772412
-0.00861445
-0.00949366
-0.010231
-0.0106893
-0.0108131
-0.0106354
-0.010216
-0.00953104
-0.0090975
-0.00838932
-0.00166563
-0.0016999
-0.00174187
-0.00177685
-0.00180344
-0.00182723
-0.0018523
-0.00188132
-0.00191635
-0.00195903
-0.00201061
-0.00207213
-0.00214455
-0.00222895
-0.00232657
-0.00243881
-0.00256738
-0.00271444
-0.00288264
-0.00307529
-0.00329641
-0.00355085
-0.00384423
-0.00418286
-0.00457367
-0.00502369
-0.00553931
-0.00612454
-0.00677796
-0.00748731
-0.00822035
-0.00892046
-0.00949903
-0.00985336
-0.00992437
-0.00972603
-0.00930218
-0.00854403
-0.00821093
-0.00733887
-0.00175857
-0.00179506
-0.0018368
-0.00186759
-0.0018877
-0.00190455
-0.00192318
-0.00194673
-0.00197743
-0.00201714
-0.00206688
-0.00212743
-0.00219953
-0.00228415
-0.00238248
-0.00249566
-0.00262522
-0.00277315
-0.0029419
-0.00313454
-0.00335478
-0.00360696
-0.003896
-0.0042269
-0.00460496
-0.00503421
-0.00551714
-0.00605303
-0.00663493
-0.00724592
-0.00785368
-0.00840954
-0.00884639
-0.00908482
-0.00906718
-0.00879026
-0.00827206
-0.00733831
-0.00707823
-0.00580478
-0.00186135
-0.00189944
-0.00193869
-0.00196145
-0.00197111
-0.00197762
-0.00198711
-0.00200302
-0.00202804
-0.00206388
-0.00211106
-0.00216977
-0.00224075
-0.00232476
-0.00242269
-0.00253551
-0.00266452
-0.00281144
-0.00297854
-0.00316866
-0.00338525
-0.00363223
-0.00391414
-0.00423523
-0.00459935
-0.00500878
-0.00546317
-0.00595803
-0.00648245
-0.00701626
-0.00752687
-0.00796772
-0.00827919
-0.00839475
-0.00825926
-0.00785128
-0.00716048
-0.0059525
-0.00572918
-0.00373533
-0.00198172
-0.00201892
-0.00205082
-0.00205891
-0.00205214
-0.00204378
-0.00204078
-0.00204722
-0.00206624
-0.00209754
-0.00214104
-0.0021971
-0.00226626
-0.00234895
-0.00244567
-0.00255708
-0.00268419
-0.00282845
-0.0029919
-0.00317718
-0.00338755
-0.00362681
-0.00389911
-0.00420836
-0.00455768
-0.0049483
-0.00537823
-0.00584041
-0.00632105
-0.00679667
-0.00723227
-0.00757993
-0.00778016
-0.0077676
-0.00748632
-0.00688856
-0.00594065
-0.00440934
-0.0039395
-0.00106763
-0.0021316
-0.0021616
-0.00217573
-0.00215805
-0.00212623
-0.0020973
-0.00207902
-0.0020759
-0.00208714
-0.00211254
-0.00215198
-0.00220534
-0.00227257
-0.00235372
-0.00244894
-0.0025585
-0.00268301
-0.00282365
-0.00298226
-0.00316137
-0.00336407
-0.0035941
-0.0038555
-0.00415209
-0.00448665
-0.00485985
-0.00526874
-0.00570467
-0.00615125
-0.00658182
-0.0069571
-0.00722421
-0.00731839
-0.00716387
-0.00669317
-0.00581914
-0.00449158
-0.0024601
-0.00142805
0.00241469
-0.00233963
-0.00234351
-0.00231463
-0.00225213
-0.00218246
-0.00212652
-0.00209238
-0.00207814
-0.00208184
-0.00210222
-0.00213849
-0.00218996
-0.00225596
-0.00233622
-0.00243054
-0.00253879
-0.00266119
-0.00279851
-0.00295249
-0.00312569
-0.00332123
-0.00354278
-0.00379431
-0.00407956
-0.00440117
-0.00475952
-0.00515086
-0.00556518
-0.00598325
-0.00637451
-0.00669376
-0.00687866
-0.00685299
-0.00651564
-0.00577318
-0.00447868
-0.00256597
0.000305817
0.00234248
0.00768611
-0.00264834
-0.00256963
-0.00245788
-0.00231799
-0.00219931
-0.00211917
-0.00207089
-0.00204882
-0.00204901
-0.0020682
-0.00210417
-0.00215553
-0.00222143
-0.00230152
-0.00239537
-0.00250241
-0.00262272
-0.00275717
-0.00290707
-0.00307506
-0.00326482
-0.00348018
-0.00372484
-0.0040022
-0.0043145
-0.0046615
-0.00503835
-0.00543349
-0.00582454
-0.00617573
-0.00643401
-0.00652201
-0.0063453
-0.00575841
-0.00462662
-0.00268851
0.000149675
0.00445776
0.00843946
0.0170306
-0.003196
-0.00287066
-0.00259273
-0.00234
-0.00218181
-0.00208674
-0.00203158
-0.00200733
-0.00200773
-0.00202789
-0.0020645
-0.00211566
-0.00218046
-0.00225828
-0.00234912
-0.00245355
-0.00257042
-0.00270009
-0.00284571
-0.00301036
-0.00319716
-0.00340966
-0.0036511
-0.00392456
-0.00423127
-0.00457032
-0.0049351
-0.00531209
-0.0056752
-0.00598366
-0.00617545
-0.00615396
-0.00579815
-0.00489995
-0.00327726
-0.000453598
0.00373891
0.0103751
0.0180778
0.0331299
-0.00410635
-0.00306914
-0.00261389
-0.00229472
-0.00211476
-0.00201239
-0.00195689
-0.00193438
-0.00193617
-0.00195644
-0.00199188
-0.0020407
-0.002102
-0.00217521
-0.00226017
-0.00235771
-0.00246931
-0.00259676
-0.00274168
-0.00290634
-0.00309308
-0.00330499
-0.00354505
-0.00381621
-0.00411894
-0.00445175
-0.00480598
-0.00516665
-0.00550384
-0.0057745
-0.00590704
-0.00579928
-0.00529268
-0.00414977
-0.00204627
0.00174568
0.00772646
0.0176615
0.0314242
0.0560581
-0.00525984
-0.00099157
-0.000517818
-0.000631717
-0.000667663
-0.000662544
-0.000685171
-0.000745799
-0.000828109
-0.000918459
-0.00101233
-0.00111087
-0.00121635
-0.00133069
-0.001456
-0.00159239
-0.00173914
-0.00189763
-0.00207045
-0.00226126
-0.0024729
-0.00270857
-0.00297073
-0.00326231
-0.00358333
-0.00393171
-0.00429791
-0.00466543
-0.00500288
-0.00526102
-0.00536452
-0.00520988
-0.00467089
-0.00352003
-0.00119035
0.00325151
0.0114487
0.0251029
0.0463266
0.0762925
)
;

boundaryField
{
    movingWall
    {
        type            zeroGradient;
    }
    fixedWalls
    {
        type            zeroGradient;
    }
    frontAndBack
    {
        type            empty;
    }
}


// ************************************************************************* //
