/*--------------------------------*- C++ -*----------------------------------*\
  =========                 |
  \\      /  F ield         | OpenFOAM: The Open Source CFD Toolbox
   \\    /   O peration     | Website:  https://openfoam.org
    \\  /    A nd           | Version:  12
     \\/     M anipulation  |
\*---------------------------------------------------------------------------*/
FoamFile
{
    format      ascii;
    class       surfaceScalarField;
    location    "0.7";
    object      phi;
}
// * * * * * * * * * * * * * * * * * * * * * * * * * * * * * * * * * * * * * //

dimensions      [0 3 -1 0 0 0 0];

internalField   nonuniform List<scalar> 
3120
(
1.45969e-09
-1.46072e-09
-2.77353e-09
4.23319e-09
-1.26223e-08
9.8487e-09
-2.62057e-08
1.35834e-08
-4.18812e-08
1.56755e-08
-5.85969e-08
1.67157e-08
-7.5732e-08
1.7135e-08
-9.29221e-08
1.71901e-08
-1.09955e-07
1.70328e-08
-1.2671e-07
1.6755e-08
-1.4312e-07
1.64099e-08
-1.59144e-07
1.60245e-08
-1.74751e-07
1.56071e-08
-1.89904e-07
1.51528e-08
-2.04551e-07
1.46464e-08
-2.18617e-07
1.40663e-08
-2.32003e-07
1.33859e-08
-2.44578e-07
1.2575e-08
-2.56179e-07
1.16013e-08
-2.6661e-07
1.04307e-08
-2.75638e-07
9.02817e-09
-2.82994e-07
7.35596e-09
-2.88363e-07
5.36856e-09
-2.91433e-07
3.07001e-09
-2.91935e-07
5.02587e-10
-2.89457e-07
-2.47889e-09
-2.83669e-07
-5.78766e-09
-2.74274e-07
-9.39447e-09
-2.61046e-07
-1.32286e-08
-2.43858e-07
-1.71881e-08
-2.22722e-07
-2.11357e-08
-1.97835e-07
-2.48877e-08
-1.69622e-07
-2.82124e-08
-1.38765e-07
-3.08569e-08
-1.0629e-07
-3.24754e-08
-7.3739e-08
-3.25509e-08
-4.34458e-08
-3.02932e-08
-1.88088e-08
-2.4637e-08
-3.86691e-09
-1.49419e-08
-3.86692e-09
-4.2068e-09
2.74607e-09
-1.58594e-08
1.58857e-08
-3.25245e-08
2.65138e-08
-5.2254e-08
3.33129e-08
-7.38358e-08
3.72573e-08
-9.64712e-08
3.9351e-08
-1.19622e-07
4.02854e-08
-1.42918e-07
4.04865e-08
-1.66104e-07
4.0219e-08
-1.88997e-07
3.9648e-08
-2.1146e-07
3.88726e-08
-2.33381e-07
3.79457e-08
-2.5466e-07
3.6886e-08
-2.75194e-07
3.56862e-08
-2.94867e-07
3.43199e-08
-3.13547e-07
3.27457e-08
-3.31072e-07
3.09114e-08
-3.47254e-07
2.87572e-08
-3.61871e-07
2.62181e-08
-3.74667e-07
2.32263e-08
-3.85352e-07
1.97139e-08
-3.93612e-07
1.56153e-08
-3.99115e-07
1.08714e-08
-4.01506e-07
5.46136e-09
-4.00376e-07
-6.27003e-10
-3.95427e-07
-7.42834e-09
-3.86338e-07
-1.48763e-08
-3.72867e-07
-2.28661e-08
-3.54851e-07
-3.12448e-08
-3.3224e-07
-3.97988e-08
-3.05126e-07
-4.82494e-08
-2.73768e-07
-5.62462e-08
-2.38617e-07
-6.33628e-08
-2.00402e-07
-6.90717e-08
-1.60149e-07
-7.27285e-08
-1.19235e-07
-7.34656e-08
-7.94966e-08
-7.00314e-08
-4.34425e-08
-6.06912e-08
-1.47708e-08
-4.36136e-08
-1.86377e-08
-9.9408e-09
1.26869e-08
-2.65388e-08
3.24837e-08
-4.58405e-08
4.58155e-08
-6.69461e-08
5.44184e-08
-8.93878e-08
5.9699e-08
-1.12754e-07
6.27168e-08
-1.36682e-07
6.42132e-08
-1.60872e-07
6.46765e-08
-1.85082e-07
6.44291e-08
-2.09114e-07
6.36801e-08
-2.32801e-07
6.25595e-08
-2.55994e-07
6.11392e-08
-2.78556e-07
5.94475e-08
-3.00347e-07
5.74774e-08
-3.21222e-07
5.51945e-08
-3.41019e-07
5.25428e-08
-3.59556e-07
4.94492e-08
-3.76628e-07
4.58284e-08
-3.91997e-07
4.1587e-08
-4.05398e-07
3.66276e-08
-4.16538e-07
3.08536e-08
-4.25098e-07
2.41752e-08
-4.30744e-07
1.65179e-08
-4.33121e-07
7.83864e-09
-4.31867e-07
-1.88106e-09
-4.26665e-07
-1.26309e-08
-4.17224e-07
-2.43176e-08
-4.03313e-07
-3.67767e-08
-3.84788e-07
-4.97694e-08
-3.61617e-07
-6.29701e-08
-3.33908e-07
-7.59589e-08
-3.01935e-07
-8.82184e-08
-2.66169e-07
-9.91297e-08
-2.27281e-07
-1.07959e-07
-1.86166e-07
-1.13843e-07
-1.4392e-07
-1.15712e-07
-1.01792e-07
-1.12159e-07
-6.11657e-08
-1.01318e-07
-2.42816e-08
-8.04978e-08
-4.29193e-08
-1.385e-08
2.65369e-08
-3.34552e-08
5.20889e-08
-5.44423e-08
6.68026e-08
-7.63361e-08
7.63121e-08
-9.9062e-08
8.24249e-08
-1.22482e-07
8.61364e-08
-1.46404e-07
8.81356e-08
-1.70626e-07
8.88983e-08
-1.9495e-07
8.87531e-08
-2.19193e-07
8.7923e-08
-2.43185e-07
8.65517e-08
-2.66768e-07
8.47219e-08
-2.89787e-07
8.24666e-08
-3.12088e-07
7.97789e-08
-3.33512e-07
7.66178e-08
-3.53884e-07
7.29147e-08
-3.73013e-07
6.8579e-08
-3.90688e-07
6.35028e-08
-4.06668e-07
5.75668e-08
-4.20686e-07
5.06461e-08
-4.32449e-07
4.26168e-08
-4.41639e-07
3.33645e-08
-4.47916e-07
2.2795e-08
-4.50925e-07
1.08483e-08
-4.50312e-07
-2.49455e-09
-4.4574e-07
-1.72024e-08
-4.36911e-07
-3.31472e-08
-4.23575e-07
-5.01125e-08
-4.05562e-07
-6.77824e-08
-3.82808e-07
-8.57246e-08
-3.55381e-07
-1.03385e-07
-3.23512e-07
-1.20087e-07
-2.87608e-07
-1.35034e-07
-2.4826e-07
-1.47308e-07
-2.06228e-07
-1.55875e-07
-1.62397e-07
-1.59543e-07
-1.17693e-07
-1.56864e-07
-7.30762e-08
-1.45934e-07
-3.04818e-08
-1.23092e-07
-7.34011e-08
-1.61171e-08
4.2654e-08
-3.75782e-08
7.355e-08
-5.98293e-08
8.90537e-08
-8.2458e-08
9.89408e-08
-1.05523e-07
1.0549e-07
-1.29037e-07
1.09651e-07
-1.52935e-07
1.12034e-07
-1.77102e-07
1.13065e-07
-2.01397e-07
1.13048e-07
-2.25671e-07
1.12197e-07
-2.49772e-07
1.10653e-07
-2.7355e-07
1.08499e-07
-2.96851e-07
1.05768e-07
-3.1952e-07
1.02448e-07
-3.41395e-07
9.84926e-08
-3.623e-07
9.38204e-08
-3.82046e-07
8.83243e-08
-4.00418e-07
8.18753e-08
-4.1718e-07
7.43288e-08
-4.32067e-07
6.55323e-08
-4.44783e-07
5.53332e-08
-4.55008e-07
4.35894e-08
-4.62395e-07
3.01821e-08
-4.66578e-07
1.50313e-08
-4.67185e-07
-1.88775e-09
-4.63842e-07
-2.0545e-08
-4.56209e-07
-4.07811e-08
-4.43978e-07
-6.23429e-08
-4.26911e-07
-8.48493e-08
-4.04864e-07
-1.07772e-07
-3.77818e-07
-1.30431e-07
-3.45913e-07
-1.51993e-07
-3.09462e-07
-1.71484e-07
-2.68969e-07
-1.87801e-07
-2.25104e-07
-1.9974e-07
-1.78665e-07
-2.05983e-07
-1.30519e-07
-2.0501e-07
-8.16975e-08
-1.94755e-07
-3.44883e-08
-1.70301e-07
-1.07889e-07
-1.73098e-08
5.99637e-08
-3.98994e-08
9.61396e-08
-6.3092e-08
1.12246e-07
-8.63994e-08
1.22248e-07
-1.09882e-07
1.28972e-07
-1.33613e-07
1.33381e-07
-1.576e-07
1.36021e-07
-1.81796e-07
1.37261e-07
-2.06115e-07
1.37367e-07
-2.30446e-07
1.36528e-07
-2.54666e-07
1.34873e-07
-2.78643e-07
1.32476e-07
-3.02238e-07
1.29363e-07
-3.25306e-07
1.25516e-07
-3.47692e-07
1.20878e-07
-3.69228e-07
1.15357e-07
-3.8973e-07
1.08827e-07
-4.08993e-07
1.01138e-07
-4.26784e-07
9.21201e-08
-4.42843e-07
8.1591e-08
-4.56875e-07
6.93659e-08
-4.68555e-07
5.52693e-08
-4.77522e-07
3.91494e-08
-4.83386e-07
2.08945e-08
-4.85748e-07
4.74753e-10
-4.84163e-07
-2.21304e-08
-4.78224e-07
-4.67196e-08
-4.67531e-07
-7.30359e-08
-4.51732e-07
-1.00648e-07
-4.30557e-07
-1.28947e-07
-4.03856e-07
-1.57132e-07
-3.71637e-07
-1.84212e-07
-3.34108e-07
-2.09013e-07
-2.91692e-07
-2.30217e-07
-2.45035e-07
-2.46397e-07
-1.94979e-07
-2.56039e-07
-1.42546e-07
-2.57443e-07
-8.90957e-08
-2.48205e-07
-3.75192e-08
-2.21878e-07
-1.45409e-07
-1.78626e-08
7.78263e-08
-4.1113e-08
1.1939e-07
-6.49867e-08
1.3612e-07
-8.88838e-08
1.46145e-07
-1.12812e-07
1.529e-07
-1.36849e-07
1.57418e-07
-1.61038e-07
1.6021e-07
-1.85375e-07
1.61598e-07
-2.09818e-07
1.6181e-07
-2.34294e-07
1.61004e-07
-2.58712e-07
1.59291e-07
-2.82964e-07
1.56728e-07
-3.06934e-07
1.53333e-07
-3.30494e-07
1.49076e-07
-3.53506e-07
1.4389e-07
-3.75816e-07
1.37667e-07
-3.97256e-07
1.30266e-07
-4.17632e-07
1.21514e-07
-4.36723e-07
1.11212e-07
-4.54277e-07
9.91448e-08
-4.70003e-07
8.50912e-08
-4.83568e-07
6.88342e-08
-4.94596e-07
5.01783e-08
-5.02669e-07
2.89673e-08
-5.07314e-07
5.11944e-09
-5.08049e-07
-2.1395e-08
-5.04342e-07
-5.04271e-08
-4.95663e-07
-8.17144e-08
-4.81508e-07
-1.14804e-07
-4.61429e-07
-1.49026e-07
-4.35094e-07
-1.83467e-07
-4.02343e-07
-2.16964e-07
-3.63245e-07
-2.48111e-07
-3.1816e-07
-2.75302e-07
-2.67766e-07
-2.96792e-07
-2.13062e-07
-3.10742e-07
-1.55388e-07
-3.15117e-07
-9.65959e-08
-3.06997e-07
-4.03138e-08
-2.7816e-07
-1.85722e-07
-1.80434e-08
9.58697e-08
-4.16519e-08
1.42999e-07
-6.60064e-08
1.60474e-07
-9.03966e-08
1.70536e-07
-1.1476e-07
1.77264e-07
-1.39153e-07
1.81811e-07
-1.63627e-07
1.84684e-07
-1.88204e-07
1.86175e-07
-2.12872e-07
1.86478e-07
-2.37593e-07
1.85725e-07
-2.62304e-07
1.84002e-07
-2.86929e-07
1.81353e-07
-3.11375e-07
1.77779e-07
-3.35542e-07
1.73242e-07
-3.59311e-07
1.6766e-07
-3.82555e-07
1.60911e-07
-4.05123e-07
1.52834e-07
-4.26843e-07
1.43233e-07
-4.47511e-07
1.3188e-07
-4.66889e-07
1.18523e-07
-4.84693e-07
1.02895e-07
-5.00589e-07
8.47299e-08
-5.14184e-07
6.37734e-08
-5.25022e-07
3.98055e-08
-5.32573e-07
1.26704e-08
-5.36261e-07
-1.77074e-08
-5.35424e-07
-5.1264e-08
-5.29368e-07
-8.77708e-08
-5.17381e-07
-1.26791e-07
-4.98785e-07
-1.67622e-07
-4.72999e-07
-2.09253e-07
-4.39627e-07
-2.50335e-07
-3.98564e-07
-2.89174e-07
-3.5009e-07
-3.23776e-07
-2.94954e-07
-3.51928e-07
-2.34416e-07
-3.7128e-07
-1.70279e-07
-3.79255e-07
-1.05053e-07
-3.72223e-07
-4.32623e-08
-3.39951e-07
-2.28985e-07
-1.80109e-08
1.13881e-07
-4.17826e-08
1.6677e-07
-6.64717e-08
1.85164e-07
-9.12674e-08
1.95331e-07
-1.16039e-07
2.02035e-07
-1.40807e-07
2.0658e-07
-1.65619e-07
2.09496e-07
-1.90509e-07
2.11065e-07
-2.15486e-07
2.11455e-07
-2.40539e-07
2.10777e-07
-2.65635e-07
2.09098e-07
-2.90726e-07
2.06444e-07
-3.15751e-07
2.02804e-07
-3.40635e-07
1.98126e-07
-3.65292e-07
1.92317e-07
-3.89622e-07
1.8524e-07
-4.13503e-07
1.76715e-07
-4.3679e-07
1.66521e-07
-4.59308e-07
1.54398e-07
-4.8084e-07
1.40054e-07
-5.01116e-07
1.23172e-07
-5.19808e-07
1.03422e-07
-5.36513e-07
8.0478e-08
-5.50739e-07
5.40314e-08
-5.61896e-07
2.38279e-08
-5.69302e-07
-1.03021e-08
-5.72141e-07
-4.84251e-08
-5.69517e-07
-9.03947e-08
-5.6046e-07
-1.35847e-07
-5.43984e-07
-1.84098e-07
-5.1917e-07
-2.34067e-07
-4.85296e-07
-2.8421e-07
-4.4199e-07
-3.3248e-07
-3.89408e-07
-3.76357e-07
-3.28386e-07
-4.1295e-07
-2.60537e-07
-4.39129e-07
-1.88295e-07
-4.51496e-07
-1.15053e-07
-4.45465e-07
-4.65392e-08
-4.08465e-07
-2.75524e-07
-1.78546e-08
1.31735e-07
-4.16736e-08
1.90589e-07
-6.65937e-08
2.10084e-07
-9.17208e-08
2.20458e-07
-1.16863e-07
2.27178e-07
-1.42007e-07
2.31723e-07
-1.67185e-07
2.34675e-07
-1.92436e-07
2.36315e-07
-2.17783e-07
2.36802e-07
-2.43236e-07
2.36231e-07
-2.6879e-07
2.34652e-07
-2.94426e-07
2.3208e-07
-3.20113e-07
2.28492e-07
-3.45812e-07
2.23825e-07
-3.71469e-07
2.17974e-07
-3.9702e-07
2.10791e-07
-4.2238e-07
2.02076e-07
-4.47443e-07
1.91584e-07
-4.72068e-07
1.79024e-07
-4.96073e-07
1.64059e-07
-5.19218e-07
1.46316e-07
-5.41191e-07
1.25395e-07
-5.6159e-07
1.00877e-07
-5.799e-07
7.23418e-08
-5.9547e-07
3.93982e-08
-6.07526e-07
1.75339e-09
-6.15058e-07
-4.08931e-08
-6.16948e-07
-8.85041e-08
-6.11903e-07
-1.40892e-07
-5.98534e-07
-1.97467e-07
-5.75463e-07
-2.57138e-07
-5.41491e-07
-3.18182e-07
-4.95837e-07
-3.78134e-07
-4.38421e-07
-4.33773e-07
-3.70139e-07
-4.81232e-07
-2.93056e-07
-5.16212e-07
-2.10477e-07
-5.34076e-07
-1.2705e-07
-5.28892e-07
-5.02161e-08
-4.85299e-07
-3.2574e-07
-1.76314e-08
1.49367e-07
-4.14318e-08
2.1439e-07
-6.65105e-08
2.35162e-07
-9.1909e-08
2.45857e-07
-1.17384e-07
2.52653e-07
-1.42889e-07
2.57228e-07
-1.68442e-07
2.60227e-07
-1.94077e-07
2.6195e-07
-2.19829e-07
2.62555e-07
-2.45726e-07
2.62128e-07
-2.71788e-07
2.60713e-07
-2.98023e-07
2.58315e-07
-3.24434e-07
2.54903e-07
-3.51017e-07
2.50408e-07
-3.7776e-07
2.44717e-07
-4.04638e-07
2.37669e-07
-4.31614e-07
2.29052e-07
-4.58629e-07
2.18599e-07
-4.85593e-07
2.05987e-07
-5.12372e-07
1.90837e-07
-5.38771e-07
1.72716e-07
-5.64519e-07
1.51142e-07
-5.89233e-07
1.25592e-07
-6.124e-07
9.55085e-08
-6.33332e-07
6.03298e-08
-6.5111e-07
1.95317e-08
-6.64629e-07
-2.73737e-08
-6.72455e-07
-8.06785e-08
-6.72913e-07
-1.40434e-07
-6.64106e-07
-2.06274e-07
-6.44027e-07
-2.77217e-07
-6.10779e-07
-3.51429e-07
-5.62928e-07
-4.25986e-07
-4.99952e-07
-4.96749e-07
-4.22717e-07
-5.58467e-07
-3.33847e-07
-6.05082e-07
-2.37898e-07
-6.30025e-07
-1.41384e-07
-6.25406e-07
-5.41718e-08
-5.72511e-07
-3.79912e-07
-1.73799e-08
1.66747e-07
-4.11237e-08
2.38133e-07
-6.63117e-08
2.6035e-07
-9.19335e-08
2.71479e-07
-1.17704e-07
2.78423e-07
-1.43548e-07
2.83072e-07
-1.69465e-07
2.86145e-07
-1.95488e-07
2.87973e-07
-2.21658e-07
2.88724e-07
-2.48017e-07
2.88488e-07
-2.74607e-07
2.87303e-07
-3.01466e-07
2.85174e-07
-3.2863e-07
2.82068e-07
-3.56135e-07
2.77912e-07
-3.8401e-07
2.72592e-07
-4.12283e-07
2.65941e-07
-4.40969e-07
2.57739e-07
-4.7007e-07
2.477e-07
-4.99561e-07
2.35478e-07
-5.29375e-07
2.20651e-07
-5.59388e-07
2.0273e-07
-5.89392e-07
1.81146e-07
-6.1906e-07
1.5526e-07
-6.47907e-07
1.24356e-07
-6.75237e-07
8.76596e-08
-7.00073e-07
4.43675e-08
-7.2113e-07
-6.31644e-09
-7.36697e-07
-6.51114e-08
-7.44651e-07
-1.3248e-07
-7.42457e-07
-2.08469e-07
-7.27264e-07
-2.9241e-07
-6.9616e-07
-3.82533e-07
-6.46663e-07
-4.75483e-07
-5.7744e-07
-5.65971e-07
-4.89122e-07
-6.46786e-07
-3.85015e-07
-7.09188e-07
-2.71496e-07
-7.43544e-07
-1.57948e-07
-7.38954e-07
-5.79038e-08
-6.72555e-07
-4.37816e-07
-1.71234e-08
1.8387e-07
-4.07911e-08
2.61801e-07
-6.60548e-08
2.85614e-07
-9.18616e-08
2.97285e-07
-1.17892e-07
3.04453e-07
-1.44044e-07
3.09224e-07
-1.70304e-07
3.12405e-07
-1.96699e-07
3.14368e-07
-2.23275e-07
3.153e-07
-2.50087e-07
3.153e-07
-2.77197e-07
3.14413e-07
-3.04671e-07
3.12648e-07
-3.32581e-07
3.09977e-07
-3.61001e-07
3.06332e-07
-3.90011e-07
3.01602e-07
-4.19694e-07
2.95624e-07
-4.50129e-07
2.88174e-07
-4.8139e-07
2.78961e-07
-5.13533e-07
2.67621e-07
-5.46583e-07
2.53701e-07
-5.80512e-07
2.36659e-07
-6.15213e-07
2.15846e-07
-6.50454e-07
1.90501e-07
-6.85831e-07
1.59733e-07
-7.20693e-07
1.22522e-07
-7.54051e-07
7.77259e-08
-7.84487e-07
2.41187e-08
-8.10027e-07
-3.95708e-08
-8.28049e-07
-1.14459e-07
-8.35251e-07
-2.01266e-07
-8.27687e-07
-2.99974e-07
-8.01e-07
-4.0922e-07
-7.51043e-07
-5.2544e-07
-6.75018e-07
-6.41997e-07
-5.72884e-07
-7.48919e-07
-4.48709e-07
-8.33364e-07
-3.11636e-07
-8.80616e-07
-1.75751e-07
-8.74839e-07
-6.03343e-08
-7.87972e-07
-4.9815e-07
-1.6875e-08
2.00745e-07
-4.04597e-08
2.85386e-07
-6.5777e-08
3.10931e-07
-9.17373e-08
3.23246e-07
-1.17992e-07
3.30708e-07
-1.44418e-07
3.3565e-07
-1.70988e-07
3.38975e-07
-1.97722e-07
3.41102e-07
-2.24669e-07
3.42248e-07
-2.51898e-07
3.42528e-07
-2.79488e-07
3.42003e-07
-3.07533e-07
3.40693e-07
-3.36138e-07
3.38582e-07
-3.65421e-07
3.35616e-07
-3.95514e-07
3.31696e-07
-4.2656e-07
3.2667e-07
-4.58712e-07
3.20326e-07
-4.92128e-07
3.12377e-07
-5.26963e-07
3.02456e-07
-5.63357e-07
2.90095e-07
-6.0141e-07
2.74713e-07
-6.41158e-07
2.55594e-07
-6.82519e-07
2.31861e-07
-7.25232e-07
2.02446e-07
-7.68769e-07
1.66059e-07
-8.1221e-07
1.21167e-07
-8.54083e-07
6.59916e-08
-8.92229e-07
-1.42483e-09
-9.23506e-07
-8.31816e-08
-9.43772e-07
-1.81e-07
-9.47704e-07
-2.96043e-07
-9.2896e-07
-4.27964e-07
-8.8083e-07
-5.7357e-07
-7.97907e-07
-7.24919e-07
-6.78469e-07
-8.68357e-07
-5.27215e-07
-9.84618e-07
-3.57718e-07
-1.05011e-06
-1.92164e-07
-1.04039e-06
-5.93848e-08
-9.20751e-07
-5.57535e-07
-1.66423e-08
2.17387e-07
-4.01456e-08
3.08889e-07
-6.55024e-08
3.36288e-07
-9.15909e-08
3.49334e-07
-1.18037e-07
3.57155e-07
-1.44698e-07
3.62311e-07
-1.71533e-07
3.6581e-07
-1.98558e-07
3.68127e-07
-2.25823e-07
3.69513e-07
-2.53405e-07
3.7011e-07
-2.81402e-07
3.7e-07
-3.09934e-07
3.69225e-07
-3.3914e-07
3.67788e-07
-3.69181e-07
3.65657e-07
-4.00242e-07
3.62757e-07
-4.32532e-07
3.5896e-07
-4.66284e-07
3.54077e-07
-5.01751e-07
3.47845e-07
-5.39204e-07
3.3991e-07
-5.78921e-07
3.29811e-07
-6.21165e-07
3.16957e-07
-6.66157e-07
3.00586e-07
-7.14027e-07
2.79731e-07
-7.64739e-07
2.53158e-07
-8.17984e-07
2.19303e-07
-8.73026e-07
1.76209e-07
-9.28504e-07
1.21469e-07
-9.82142e-07
5.2214e-08
-1.03049e-06
-3.48317e-08
-1.06853e-06
-1.42958e-07
-1.08938e-06
-2.75193e-07
-1.08413e-06
-4.33221e-07
-1.04228e-06
-6.15413e-07
-9.53946e-07
-8.13257e-07
-8.13483e-07
-1.00882e-06
-6.25448e-07
-1.17265e-06
-4.10076e-07
-1.26549e-06
-2.03602e-07
-1.24687e-06
-5.20574e-08
-1.0723e-06
-6.09592e-07
-1.64298e-08
2.33817e-07
-3.98597e-08
3.32319e-07
-6.5249e-08
3.61677e-07
-9.14454e-08
3.75531e-07
-1.18051e-07
3.83761e-07
-1.44906e-07
3.89165e-07
-1.71955e-07
3.92859e-07
-1.99208e-07
3.9538e-07
-2.26715e-07
3.9702e-07
-2.54562e-07
3.97957e-07
-2.82863e-07
3.98301e-07
-3.11759e-07
3.98121e-07
-3.41423e-07
3.97452e-07
-3.7206e-07
3.96293e-07
-4.03906e-07
3.94604e-07
-4.3724e-07
3.92293e-07
-4.72375e-07
3.89213e-07
-5.09672e-07
3.85141e-07
-5.49528e-07
3.79766e-07
-5.92378e-07
3.72662e-07
-6.38679e-07
3.63257e-07
-6.88882e-07
3.5079e-07
-7.4339e-07
3.34239e-07
-8.02476e-07
3.12245e-07
-8.66172e-07
2.82998e-07
-9.34084e-07
2.44122e-07
-1.00516e-06
1.92543e-07
-1.07732e-06
1.24374e-07
-1.14705e-06
3.49006e-08
-1.20882e-06
-8.11871e-08
-1.25423e-06
-2.29782e-07
-1.27142e-06
-4.16034e-07
-1.24481e-06
-6.42021e-07
-1.15706e-06
-9.0101e-07
-9.94689e-07
-1.17119e-06
-7.59744e-07
-1.4076e-06
-4.81135e-07
-1.54409e-06
-2.15807e-07
-1.5122e-06
-3.89157e-08
-1.24919e-06
-6.48508e-07
-1.62408e-08
2.50058e-07
-3.96114e-08
3.5569e-07
-6.5033e-08
3.87099e-07
-9.13226e-08
4.0182e-07
-1.1806e-07
4.10498e-07
-1.45064e-07
4.16169e-07
-1.72269e-07
4.20064e-07
-1.99675e-07
4.22786e-07
-2.27333e-07
4.24678e-07
-2.55332e-07
4.25956e-07
-2.838e-07
4.26769e-07
-3.12899e-07
4.27221e-07
-3.42833e-07
4.27386e-07
-3.73844e-07
4.27304e-07
-4.06222e-07
4.26982e-07
-4.40309e-07
4.2638e-07
-4.76505e-07
4.25409e-07
-5.15274e-07
4.2391e-07
-5.57149e-07
4.21641e-07
-6.02734e-07
4.18247e-07
-6.52699e-07
4.13222e-07
-7.0776e-07
4.05852e-07
-7.68646e-07
3.95125e-07
-8.36024e-07
3.79622e-07
-9.1039e-07
3.57364e-07
-9.91895e-07
3.25627e-07
-1.08008e-06
2.80728e-07
-1.17351e-06
2.17805e-07
-1.26912e-06
1.30508e-07
-1.36193e-06
1.16231e-08
-1.44249e-06
-1.49219e-07
-1.49647e-06
-3.62055e-07
-1.50214e-06
-6.36348e-07
-1.43135e-06
-9.71799e-07
-1.25675e-06
-1.34579e-06
-9.75421e-07
-1.68893e-06
-6.25095e-07
-1.89442e-06
-2.76611e-07
-1.86068e-06
-4.10747e-08
-1.48472e-06
-6.89583e-07
-1.60798e-08
2.66138e-07
-3.94122e-08
3.79022e-07
-6.48738e-08
4.1256e-07
-9.12489e-08
4.28195e-07
-1.18092e-07
4.37341e-07
-1.45203e-07
4.4328e-07
-1.72501e-07
4.47361e-07
-1.99976e-07
4.50261e-07
-2.27676e-07
4.52378e-07
-2.55693e-07
4.53973e-07
-2.84164e-07
4.5524e-07
-3.13269e-07
4.56326e-07
-3.43237e-07
4.57353e-07
-3.74344e-07
4.58412e-07
-4.06928e-07
4.59566e-07
-4.4139e-07
4.60842e-07
-4.78207e-07
4.62226e-07
-5.17944e-07
4.63647e-07
-5.61266e-07
4.64962e-07
-6.08945e-07
4.65926e-07
-6.61868e-07
4.66145e-07
-7.21031e-07
4.65014e-07
-7.87517e-07
4.61611e-07
-8.62449e-07
4.54555e-07
-9.46907e-07
4.41822e-07
-1.04179e-06
4.20511e-07
-1.14761e-06
3.86548e-07
-1.26415e-06
3.34346e-07
-1.39002e-06
2.56375e-07
-1.52119e-06
1.42794e-07
-1.65055e-06
-1.98581e-08
-1.76198e-06
-2.50626e-07
-1.82722e-06
-5.71112e-07
-1.80464e-06
-9.94372e-07
-1.64949e-06
-1.50094e-06
-1.35682e-06
-1.9816e-06
-9.57199e-07
-2.29405e-06
-5.0442e-07
-2.31346e-06
-1.25589e-07
-1.86355e-06
-8.15172e-07
-1.59534e-08
2.82091e-07
-3.92785e-08
4.02347e-07
-6.47981e-08
4.3808e-07
-9.12597e-08
4.54657e-07
-1.1819e-07
4.64271e-07
-1.45368e-07
4.70458e-07
-1.72693e-07
4.74686e-07
-2.00146e-07
4.77714e-07
-2.27766e-07
4.79998e-07
-2.55647e-07
4.81854e-07
-2.83931e-07
4.83524e-07
-3.12812e-07
4.85207e-07
-3.42536e-07
4.87077e-07
-3.7341e-07
4.89285e-07
-4.05806e-07
4.91961e-07
-4.40175e-07
4.95212e-07
-4.77062e-07
4.99113e-07
-5.17117e-07
5.03702e-07
-5.61118e-07
5.08964e-07
-6.09989e-07
5.14796e-07
-6.64815e-07
5.20971e-07
-7.26853e-07
5.27052e-07
-7.97535e-07
5.32293e-07
-8.78455e-07
5.35475e-07
-9.71341e-07
5.34709e-07
-1.07801e-06
5.27179e-07
-1.20026e-06
5.08804e-07
-1.33976e-06
4.73844e-07
-1.49779e-06
4.14404e-07
-1.67386e-06
3.18858e-07
-1.86343e-06
1.69719e-07
-2.05309e-06
-6.09676e-08
-2.20689e-06
-4.17318e-07
-2.26251e-06
-9.38743e-07
-2.17052e-06
-1.59293e-06
-1.92285e-06
-2.22927e-06
-1.51046e-06
-2.70644e-06
-9.63631e-07
-2.86028e-06
-3.62435e-07
-2.46475e-06
-1.17761e-06
-1.58725e-08
2.97964e-07
-3.92345e-08
4.25709e-07
-6.48434e-08
4.63689e-07
-9.14047e-08
4.81218e-07
-1.18413e-07
4.9128e-07
-1.45621e-07
4.97665e-07
-1.72908e-07
5.01974e-07
-2.00241e-07
5.05047e-07
-2.2765e-07
5.07408e-07
-2.55226e-07
5.0943e-07
-2.83113e-07
5.11411e-07
-3.11511e-07
5.13605e-07
-3.40679e-07
5.16246e-07
-3.70942e-07
5.19548e-07
-4.02698e-07
5.23718e-07
-4.36433e-07
5.28947e-07
-4.72737e-07
5.35416e-07
-5.12321e-07
5.43287e-07
-5.56049e-07
5.52691e-07
-6.04955e-07
5.63702e-07
-6.60275e-07
5.7629e-07
-7.23473e-07
5.9025e-07
-7.96268e-07
6.05088e-07
-8.80666e-07
6.19873e-07
-9.79009e-07
6.33052e-07
-1.09404e-06
6.42209e-07
-1.22899e-06
6.43754e-07
-1.38772e-06
6.3258e-07
-1.5746e-06
6.01276e-07
-1.79281e-06
5.37074e-07
-2.03983e-06
4.1674e-07
-2.29012e-06
1.89316e-07
-2.47383e-06
-2.3361e-07
-2.52835e-06
-8.84218e-07
-2.47417e-06
-1.64712e-06
-2.31585e-06
-2.38758e-06
-1.98009e-06
-3.0422e-06
-1.44115e-06
-3.39922e-06
-6.94157e-07
-3.21175e-06
-1.87176e-06
-1.58533e-08
3.13817e-07
-3.9315e-08
4.49171e-07
-6.50624e-08
4.89436e-07
-9.17514e-08
5.07907e-07
-1.18839e-07
5.18367e-07
-1.46047e-07
5.24874e-07
-1.73233e-07
5.2916e-07
-2.00346e-07
5.32159e-07
-2.27405e-07
5.34467e-07
-2.54494e-07
5.36519e-07
-2.81756e-07
5.38672e-07
-3.09391e-07
5.41241e-07
-3.37664e-07
5.44519e-07
-3.66907e-07
5.48791e-07
-3.97527e-07
5.54338e-07
-4.30026e-07
5.61446e-07
-4.65014e-07
5.70404e-07
-5.03232e-07
5.81505e-07
-5.4558e-07
5.9504e-07
-5.93149e-07
6.1127e-07
-6.47248e-07
6.3039e-07
-7.09452e-07
6.52455e-07
-7.81645e-07
6.77281e-07
-8.66093e-07
7.04322e-07
-9.65564e-07
7.32522e-07
-1.08349e-06
7.60137e-07
-1.22425e-06
7.84515e-07
-1.39351e-06
8.01836e-07
-1.59751e-06
8.05273e-07
-1.84052e-06
7.80083e-07
-2.11325e-06
6.89473e-07
-2.36592e-06
4.41989e-07
-2.51346e-06
-8.60706e-08
-2.54583e-06
-8.51847e-07
-2.49816e-06
-1.69479e-06
-2.35736e-06
-2.52838e-06
-2.09352e-06
-3.30604e-06
-1.64273e-06
-3.85002e-06
-9.48533e-07
-3.90594e-06
-2.8203e-06
-1.59189e-08
3.29736e-07
-3.95683e-08
4.7282e-07
-6.5526e-08
5.15394e-07
-9.23895e-08
5.34771e-07
-1.19571e-07
5.45549e-07
-1.46759e-07
5.52061e-07
-1.73782e-07
5.56184e-07
-2.00572e-07
5.58949e-07
-2.27136e-07
5.6103e-07
-2.53547e-07
5.62931e-07
-2.79944e-07
5.65069e-07
-3.06523e-07
5.6782e-07
-3.33545e-07
5.71541e-07
-3.61336e-07
5.76582e-07
-3.90299e-07
5.83301e-07
-4.20927e-07
5.92074e-07
-4.53821e-07
6.03298e-07
-4.8971e-07
6.17394e-07
-5.29479e-07
6.34809e-07
-5.74199e-07
6.5599e-07
-6.2516e-07
6.81351e-07
-6.83915e-07
7.11209e-07
-7.52336e-07
7.45702e-07
-8.32715e-07
7.84701e-07
-9.27913e-07
8.2772e-07
-1.04158e-06
8.73807e-07
-1.17856e-06
9.21492e-07
-1.34505e-06
9.68325e-07
-1.54703e-06
1.00725e-06
-1.78562e-06
1.01867e-06
-2.03932e-06
9.43172e-07
-2.24549e-06
6.48162e-07
-2.33701e-06
5.44825e-09
-2.33681e-06
-8.52048e-07
-2.26927e-06
-1.76232e-06
-2.13181e-06
-2.66584e-06
-1.91257e-06
-3.52529e-06
-1.53511e-06
-4.22748e-06
-9.73651e-07
-4.4674e-06
-3.79395e-06
-1.61015e-08
3.45837e-07
-4.0059e-08
4.96778e-07
-6.63272e-08
5.41662e-07
-9.3434e-08
5.61878e-07
-1.2074e-07
5.72855e-07
-1.47893e-07
5.79214e-07
-1.74695e-07
5.82986e-07
-2.01057e-07
5.85311e-07
-2.26973e-07
5.86946e-07
-2.52508e-07
5.88466e-07
-2.77792e-07
5.90353e-07
-3.03013e-07
5.93042e-07
-3.28421e-07
5.96948e-07
-3.54324e-07
6.02485e-07
-3.81105e-07
6.10082e-07
-4.09225e-07
6.20194e-07
-4.39242e-07
6.33314e-07
-4.71831e-07
6.49983e-07
-5.07804e-07
6.70782e-07
-5.48136e-07
6.96322e-07
-5.9399e-07
7.27206e-07
-6.46754e-07
7.63973e-07
-7.08089e-07
8.07038e-07
-7.80023e-07
8.56635e-07
-8.65084e-07
9.12781e-07
-9.665e-07
9.75223e-07
-1.08852e-06
1.04351e-06
-1.23602e-06
1.11583e-06
-1.41248e-06
1.18371e-06
-1.61281e-06
1.219e-06
-1.8069e-06
1.13726e-06
-1.93774e-06
7.79012e-07
-1.9817e-06
4.94059e-08
-1.95835e-06
-8.75405e-07
-1.89621e-06
-1.82446e-06
-1.79474e-06
-2.76731e-06
-1.62801e-06
-3.69202e-06
-1.3173e-06
-4.53818e-06
-8.20573e-07
-4.96412e-06
-4.61452e-06
-1.64434e-08
3.62281e-07
-4.08714e-08
5.21206e-07
-6.75842e-08
5.68375e-07
-9.50275e-08
5.89321e-07
-1.22502e-07
6.0033e-07
-1.49612e-07
6.06324e-07
-1.76133e-07
6.09507e-07
-2.01955e-07
6.11133e-07
-2.27062e-07
6.12053e-07
-2.51513e-07
6.12917e-07
-2.7543e-07
6.14269e-07
-2.9899e-07
6.16602e-07
-3.22423e-07
6.20382e-07
-3.46015e-07
6.26077e-07
-3.70108e-07
6.34175e-07
-3.95109e-07
6.45195e-07
-4.21506e-07
6.59711e-07
-4.49878e-07
6.78355e-07
-4.80911e-07
7.01816e-07
-5.15414e-07
7.30824e-07
-5.54326e-07
7.66118e-07
-5.98738e-07
8.08385e-07
-6.49919e-07
8.58218e-07
-7.09358e-07
9.16074e-07
-7.78842e-07
9.82265e-07
-8.60539e-07
1.05692e-06
-9.57042e-07
1.14001e-06
-1.07057e-06
1.22936e-06
-1.2015e-06
1.31465e-06
-1.33909e-06
1.35658e-06
-1.45824e-06
1.25641e-06
-1.52528e-06
8.46052e-07
-1.54039e-06
6.45138e-08
-1.52344e-06
-8.92349e-07
-1.48705e-06
-1.86085e-06
-1.43022e-06
-2.82414e-06
-1.32631e-06
-3.79593e-06
-1.10858e-06
-4.75591e-06
-6.78859e-07
-5.39385e-06
-5.29338e-06
-1.70005e-08
3.79281e-07
-4.21132e-08
5.46318e-07
-6.94443e-08
5.95706e-07
-9.73426e-08
6.17219e-07
-1.25041e-07
6.28028e-07
-1.521e-07
6.33383e-07
-1.78268e-07
6.35674e-07
-2.03423e-07
6.36289e-07
-2.27546e-07
6.36176e-07
-2.50692e-07
6.36063e-07
-2.72979e-07
6.36556e-07
-2.94574e-07
6.38197e-07
-3.15687e-07
6.41495e-07
-3.36568e-07
6.46958e-07
-3.57506e-07
6.55113e-07
-3.78838e-07
6.66528e-07
-4.00956e-07
6.81829e-07
-4.24311e-07
7.0171e-07
-4.49421e-07
7.26926e-07
-4.76873e-07
7.58276e-07
-5.07317e-07
7.96562e-07
-5.41458e-07
8.42526e-07
-5.80044e-07
8.96805e-07
-6.23853e-07
9.59882e-07
-6.73652e-07
1.03206e-06
-7.30156e-07
1.11342e-06
-7.93838e-07
1.20369e-06
-8.64358e-07
1.29988e-06
-9.3735e-07
1.38764e-06
-1.00261e-06
1.42185e-06
-1.05024e-06
1.30404e-06
-1.07047e-06
8.66272e-07
-1.07603e-06
7.00833e-08
-1.07637e-06
-8.9201e-07
-1.07249e-06
-1.86474e-06
-1.06028e-06
-2.83635e-06
-1.01507e-06
-3.84114e-06
-8.83889e-07
-4.88709e-06
-5.49944e-07
-5.72779e-06
-5.84332e-06
-1.78452e-08
3.97126e-07
-4.39202e-08
5.72393e-07
-7.20871e-08
6.23873e-07
-1.00581e-07
6.45713e-07
-1.28562e-07
6.56009e-07
-1.55548e-07
6.60369e-07
-1.81269e-07
6.61395e-07
-2.05603e-07
6.60623e-07
-2.28537e-07
6.59109e-07
-2.50135e-07
6.57661e-07
-2.70518e-07
6.56939e-07
-2.89844e-07
6.57524e-07
-3.08304e-07
6.59954e-07
-3.26106e-07
6.6476e-07
-3.43481e-07
6.72488e-07
-3.60682e-07
6.83728e-07
-3.77984e-07
6.99132e-07
-3.9569e-07
7.19416e-07
-4.14126e-07
7.45362e-07
-4.3363e-07
7.7778e-07
-4.54531e-07
8.17463e-07
-4.77114e-07
8.6511e-07
-5.01568e-07
9.21259e-07
-5.27905e-07
9.86219e-07
-5.5584e-07
1.06e-06
-5.8463e-07
1.14222e-06
-6.12639e-07
1.2317e-06
-6.3662e-07
1.32386e-06
-6.50316e-07
1.40134e-06
-6.48596e-07
1.42012e-06
-6.33158e-07
1.2886e-06
-6.18612e-07
8.51727e-07
-6.24446e-07
7.59173e-08
-6.49104e-07
-8.67352e-07
-6.84538e-07
-1.8293e-06
-7.19634e-07
-2.80125e-06
-7.29752e-07
-3.83102e-06
-6.73453e-07
-4.94339e-06
-4.32242e-07
-5.969e-06
-6.27557e-06
-1.90712e-08
4.16198e-07
-4.64624e-08
5.99785e-07
-7.57286e-08
6.53139e-07
-1.04974e-07
6.74959e-07
-1.33282e-07
6.84318e-07
-1.60139e-07
6.87226e-07
-1.85274e-07
6.8653e-07
-2.08583e-07
6.83931e-07
-2.30077e-07
6.80604e-07
-2.49847e-07
6.7743e-07
-2.68026e-07
6.75118e-07
-2.84775e-07
6.74272e-07
-3.00262e-07
6.75441e-07
-3.14659e-07
6.79156e-07
-3.28129e-07
6.85958e-07
-3.40833e-07
6.96432e-07
-3.52924e-07
7.11223e-07
-3.64547e-07
7.31039e-07
-3.75829e-07
7.56643e-07
-3.86856e-07
7.88808e-07
-3.97646e-07
8.28253e-07
-4.08087e-07
8.7555e-07
-4.17856e-07
9.31028e-07
-4.26304e-07
9.94667e-07
-4.32263e-07
1.06596e-06
-4.33788e-07
1.14374e-06
-4.27613e-07
1.22553e-06
-4.08755e-07
1.305e-06
-3.72026e-07
1.36461e-06
-3.15465e-07
1.36356e-06
-2.48369e-07
1.22151e-06
-2.06448e-07
8.09806e-07
-2.14468e-07
8.39375e-08
-2.66765e-07
-8.15055e-07
-3.45761e-07
-1.75031e-06
-4.32031e-07
-2.71498e-06
-4.97777e-07
-3.76528e-06
-5.0485e-07
-4.93632e-06
-3.53077e-07
-6.12077e-06
-6.62864e-06
-2.08009e-08
4.36998e-07
-4.9953e-08
6.28937e-07
-8.0625e-08
6.83811e-07
-1.10774e-07
7.05107e-07
-1.39414e-07
7.12958e-07
-1.66021e-07
7.13833e-07
-1.90351e-07
7.1086e-07
-2.12349e-07
7.05929e-07
-2.32081e-07
7.00336e-07
-2.49684e-07
6.95032e-07
-2.65322e-07
6.90757e-07
-2.79165e-07
6.88116e-07
-2.9137e-07
6.87646e-07
-3.02071e-07
6.89857e-07
-3.11363e-07
6.95251e-07
-3.19313e-07
7.04382e-07
-3.2595e-07
7.1786e-07
-3.31261e-07
7.36351e-07
-3.35182e-07
7.60564e-07
-3.37573e-07
7.91198e-07
-3.38177e-07
8.28857e-07
-3.36561e-07
8.73934e-07
-3.32018e-07
9.26485e-07
-3.23434e-07
9.86084e-07
-3.09109e-07
1.05163e-06
-2.8647e-07
1.1211e-06
-2.51669e-07
1.19073e-06
-1.99355e-07
1.25269e-06
-1.24814e-07
1.29007e-06
-2.94473e-08
1.2682e-06
6.95802e-08
1.12248e-06
1.34946e-07
7.4444e-07
1.2871e-07
9.01732e-08
5.46597e-08
-7.41005e-07
-6.4397e-08
-1.63125e-06
-1.96557e-07
-2.58282e-06
-3.08798e-07
-3.65304e-06
-3.60757e-07
-4.88436e-06
-2.87595e-07
-6.19394e-06
-6.91624e-06
-2.31968e-08
4.60195e-07
-5.46615e-08
6.60401e-07
-8.70784e-08
7.16228e-07
-1.18249e-07
7.36278e-07
-1.47142e-07
7.41852e-07
-1.73262e-07
7.39953e-07
-1.96442e-07
7.3404e-07
-2.16722e-07
7.26209e-07
-2.34261e-07
7.17875e-07
-2.49271e-07
7.10043e-07
-2.61971e-07
7.03456e-07
-2.72549e-07
6.98694e-07
-2.81156e-07
6.96253e-07
-2.87899e-07
6.96601e-07
-2.92801e-07
7.00152e-07
-2.95838e-07
7.07419e-07
-2.9692e-07
7.18942e-07
-2.95887e-07
7.35318e-07
-2.92502e-07
7.57178e-07
-2.86428e-07
7.85125e-07
-2.77201e-07
8.1963e-07
-2.64165e-07
8.60898e-07
-2.46389e-07
9.08708e-07
-2.22541e-07
9.62237e-07
-1.90744e-07
1.01983e-06
-1.48347e-07
1.07871e-06
-9.17247e-08
1.1341e-06
-1.64579e-08
1.17742e-06
8.079e-08
1.19282e-06
1.97711e-07
1.15128e-06
3.18205e-07
1.00199e-06
3.96695e-07
6.6595e-07
3.90651e-07
9.62171e-08
2.98857e-07
-6.49211e-07
1.53221e-07
-1.48562e-06
-1.35317e-08
-2.41607e-06
-1.65008e-07
-3.50156e-06
-2.54419e-07
-4.79495e-06
-2.3353e-07
-6.21483e-06
-7.14977e-06
-2.64801e-08
4.86675e-07
-6.09361e-08
6.94857e-07
-9.54447e-08
7.50737e-07
-1.27667e-07
7.685e-07
-1.56576e-07
7.70761e-07
-1.81784e-07
7.65161e-07
-2.03276e-07
7.55532e-07
-2.21253e-07
7.44187e-07
-2.36017e-07
7.32638e-07
-2.47893e-07
7.21919e-07
-2.57172e-07
7.12736e-07
-2.64076e-07
7.05598e-07
-2.68739e-07
7.00916e-07
-2.71263e-07
6.99126e-07
-2.71603e-07
7.00491e-07
-2.69642e-07
7.05459e-07
-2.65179e-07
7.14479e-07
-2.57921e-07
7.28059e-07
-2.4748e-07
7.46737e-07
-2.33366e-07
7.71011e-07
-2.14965e-07
8.01229e-07
-1.91502e-07
8.37436e-07
-1.61982e-07
8.79188e-07
-1.2509e-07
9.25344e-07
-7.90942e-08
9.73839e-07
-2.17354e-08
1.02135e-06