/*--------------------------------*- C++ -*----------------------------------*\
  =========                 |
  \\      /  F ield         | OpenFOAM: The Open Source CFD Toolbox
   \\    /   O peration     | Website:  https://openfoam.org
    \\  /    A nd           | Version:  12
     \\/     M anipulation  |
\*---------------------------------------------------------------------------*/
FoamFile
{
    format      ascii;
    class       volVectorField;
    location    "0.7";
    object      U;
}
// * * * * * * * * * * * * * * * * * * * * * * * * * * * * * * * * * * * * * //

dimensions      [0 1 -1 0 0 0 0];

internalField   nonuniform List<vector> 
1600
(
(6.62118e-05 -6.58947e-05 0)
(3.60893e-05 1.87029e-05 0)
(-0.00027012 0.000128943 0)
(-0.000756442 0.000206481 0)
(-0.00135233 0.000248946 0)
(-0.00200588 0.000269167 0)
(-0.00268618 0.000276834 0)
(-0.00337467 0.000277547 0)
(-0.00406035 0.000274581 0)
(-0.00473686 0.000269887 0)
(-0.00540065 0.000264578 0)
(-0.0060497 0.000259202 0)
(-0.00668269 0.000253906 0)
(-0.00729831 0.000248557 0)
(-0.00789483 0.000242825 0)
(-0.00846975 0.000236249 0)
(-0.00901962 0.000228287 0)
(-0.00953983 0.000218325 0)
(-0.0100245 0.000205701 0)
(-0.0104664 0.000189698 0)
(-0.0108569 0.000169512 0)
(-0.0111859 0.000144093 0)
(-0.0114446 0.000112056 0)
(-0.011614 7.42131e-05 0)
(-0.0116843 3.64251e-05 0)
(-0.0116496 -1.75173e-05 0)
(-0.0114841 -7.62398e-05 0)
(-0.0111813 -0.000141696 0)
(-0.0107292 -0.000212667 0)
(-0.0101205 -0.000287028 0)
(-0.00935272 -0.000361772 0)
(-0.00842985 -0.000432734 0)
(-0.00736336 -0.000494889 0)
(-0.00617797 -0.000544512 0)
(-0.00490506 -0.000573293 0)
(-0.00359557 -0.000569563 0)
(-0.00232271 -0.000514837 0)
(-0.00119574 -0.000384395 0)
(-0.000352443 -0.000175473 0)
(5.06768e-06 3.16718e-06 0)
(-1.93313e-05 -3.69452e-05 0)
(-0.000343385 0.000346269 0)
(-0.000937561 0.000704227 0)
(-0.00167538 0.000937036 0)
(-0.00251039 0.0010687 0)
(-0.00340045 0.00113551 0)
(-0.00431996 0.00116334 0)
(-0.00525157 0.00116772 0)
(-0.00618316 0.00115792 0)
(-0.0071062 0.0011396 0)
(-0.00801449 0.00111608 0)
(-0.00890319 0.00108906 0)
(-0.00976819 0.00105912 0)
(-0.0106055 0.00102595 0)
(-0.0114108 0.000988675 0)
(-0.0121792 0.000945927 0)
(-0.0129049 0.000896042 0)
(-0.0135808 0.000837127 0)
(-0.0141989 0.000767137 0)
(-0.0147494 0.00068394 0)
(-0.0152215 0.000585381 0)
(-0.0156031 0.000469332 0)
(-0.0158814 0.00033358 0)
(-0.0160417 0.000177662 0)
(-0.0160698 1.86008e-06 0)
(-0.0159505 -0.000196152 0)
(-0.0156714 -0.000415557 0)
(-0.0152215 -0.000652527 0)
(-0.0145919 -0.000902557 0)
(-0.0137786 -0.0011592 0)
(-0.0127821 -0.00141395 0)
(-0.0116093 -0.00165577 0)
(-0.0102745 -0.00187069 0)
(-0.00879995 -0.00204113 0)
(-0.00722162 -0.00214609 0)
(-0.0055863 -0.0021547 0)
(-0.00395686 -0.00202075 0)
(-0.00242636 -0.00168193 0)
(-0.00108991 -0.00108963 0)
(-0.000165105 -0.000348754 0)
(-0.000135546 0.000270389 0)
(-0.000705055 0.000940111 0)
(-0.00142945 0.00143193 0)
(-0.00223852 0.00175023 0)
(-0.00311576 0.00194119 0)
(-0.00403639 0.00204669 0)
(-0.00498546 0.00209648 0)
(-0.00595034 0.00210974 0)
(-0.00692041 0.00209882 0)
(-0.007887 0.00207153 0)
(-0.0088429 0.00203268 0)
(-0.0097819 0.00198485 0)
(-0.0106984 0.00192904 0)
(-0.0115868 0.00186498 0)
(-0.0124416 0.00179144 0)
(-0.0132567 0.00170645 0)
(-0.0140252 0.00160747 0)
(-0.0147394 0.00149156 0)
(-0.0153906 0.00135552 0)
(-0.0159685 0.00119602 0)
(-0.0164621 0.00100975 0)
(-0.016859 0.0007936 0)
(-0.0171463 0.000544921 0)
(-0.0173097 0.000262286 0)
(-0.0173351 -5.48576e-05 0)
(-0.0172085 -0.000406885 0)
(-0.0169177 -0.00079055 0)
(-0.016452 -0.00120047 0)
(-0.0158037 -0.00162867 0)
(-0.0149691 -0.0020643 0)
(-0.0139494 -0.00249323 0)
(-0.0127521 -0.00289792 0)
(-0.0113921 -0.00325723 0)
(-0.00989187 -0.00354563 0)
(-0.00828295 -0.00373208 0)
(-0.00660402 -0.00377673 0)
(-0.00490187 -0.00362506 0)
(-0.00324692 -0.00320507 0)
(-0.00168731 -0.0024302 0)
(-0.000354661 -0.0011752 0)
(-0.000219999 0.000764495 0)
(-0.000945455 0.00167292 0)
(-0.00175027 0.00223711 0)
(-0.00260267 0.00260369 0)
(-0.00349911 0.00283519 0)
(-0.00442504 0.00297213 0)
(-0.00537409 0.00304321 0)
(-0.006339 0.00306804 0)
(-0.00731181 0.00305997 0)
(-0.00828489 0.00302789 0)
(-0.00925121 0.00297743 0)
(-0.0102043 0.00291178 0)
(-0.0111378 0.00283222 0)
(-0.0120458 0.0027385 0)
(-0.0129219 0.00262913 0)
(-0.0137595 0.00250161 0)
(-0.0145515 0.00235264 0)
(-0.0152898 0.00217838 0)
(-0.0159653 0.00197455 0)
(-0.0165679 0.00173671 0)
(-0.0170863 0.00146046 0)
(-0.0175084 0.00114174 0)
(-0.0178209 0.000777225 0)
(-0.0180099 0.000364829 0)
(-0.0180609 -9.61328e-05 0)
(-0.0179599 -0.000604659 0)
(-0.0176943 -0.00115631 0)
(-0.0172526 -0.00174335 0)
(-0.0166264 -0.00235463 0)
(-0.0158107 -0.00297491 0)
(-0.0148054 -0.00358466 0)
(-0.0136162 -0.00415994 0)
(-0.0122559 -0.00467239 0)
(-0.0107443 -0.005089 0)
(-0.00910858 -0.00537167 0)
(-0.00738048 -0.00547521 0)
(-0.00559699 -0.00534293 0)
(-0.00381922 -0.00490135 0)
(-0.00208025 -0.00402759 0)
(-0.000477138 -0.00229178 0)
(-0.000268107 0.00137392 0)
(-0.0010862 0.00250144 0)
(-0.00194741 0.00310663 0)
(-0.00283664 0.00349682 0)
(-0.00375315 0.00375247 0)
(-0.00468661 0.00391177 0)
(-0.0056362 0.00400056 0)
(-0.00659892 0.00403695 0)
(-0.00756968 0.00403373 0)
(-0.0085426 0.00399978 0)
(-0.00951164 0.00394093 0)
(-0.0104707 0.00386056 0)
(-0.0114138 0.00376006 0)
(-0.0123348 0.0036391 0)
(-0.0132274 0.00349593 0)
(-0.0140848 0.00332758 0)
(-0.0148998 0.00313007 0)
(-0.0156643 0.00289869 0)
(-0.0163694 0.00262815 0)
(-0.017005 0.00231292 0)
(-0.01756 0.0019475 0)
(-0.018022 0.00152681 0)
(-0.0183775 0.00104665 0)
(-0.0186123 0.000504267 0)
(-0.0187115 -0.000101126 0)
(-0.01866 -0.000768025 0)
(-0.0184433 -0.00149069 0)
(-0.0180483 -0.00225952 0)
(-0.0174639 -0.00306048 0)
(-0.0166821 -0.00387425 0)
(-0.0156993 -0.00467609 0)
(-0.0145178 -0.00543586 0)
(-0.0131464 -0.0061182 0)
(-0.0116017 -0.00668301 0)
(-0.00990675 -0.00708579 0)
(-0.00808984 -0.00727692 0)
(-0.00618564 -0.00719806 0)
(-0.00425826 -0.00677173 0)
(-0.00234534 -0.00582953 0)
(-0.000547915 -0.00360202 0)
(-0.000292102 0.00204726 0)
(-0.00116221 0.00338678 0)
(-0.00206292 0.00401864 0)
(-0.00298333 0.00441738 0)
(-0.00392114 0.00468433 0)
(-0.00486664 0.00485714 0)
(-0.00582171 0.00495863 0)
(-0.00678627 0.00500462 0)
(-0.00775767 0.00500655 0)
(-0.00873191 0.00497254 0)
(-0.00970426 0.00490807 0)
(-0.0106696 0.00481633 0)
(-0.0116225 0.00469856 0)
(-0.0125572 0.00455422 0)
(-0.0134679 0.00438124 0)
(-0.0143481 0.00417614 0)
(-0.0151908 0.00393432 0)
(-0.0159882 0.00365018 0)
(-0.0167316 0.00331745 0)
(-0.0174113 0.00292947 0)
(-0.0180161 0.00247952 0)
(-0.0185336 0.00196133 0)
(-0.0189501 0.00136957 0)
(-0.0192504 0.000700543 0)
(-0.0194188 -4.72382e-05 0)
(-0.0194382 -0.000871764 0)
(-0.0192914 -0.00176721 0)
(-0.018962 -0.00272266 0)
(-0.0184348 -0.00372167 0)
(-0.017697 -0.00474135 0)
(-0.0167398 -0.00575206 0)
(-0.0155599 -0.0067174 0)
(-0.0141615 -0.00759473 0)
(-0.012557 -0.00833613 0)
(-0.0107675 -0.00888971 0)
(-0.00882122 -0.00919985 0)
(-0.00675762 -0.00920353 0)
(-0.00465226 -0.00881303 0)
(-0.00255628 -0.00780397 0)
(-0.000593797 -0.00504509 0)
(-0.000302006 0.00275313 0)
(-0.00119926 0.00430619 0)
(-0.00212684 0.0049619 0)
(-0.00307239 0.00536248 0)
(-0.00403077 0.00563276 0)
(-0.00499104 0.0058122 0)
(-0.00595586 0.00592159 0)
(-0.00692686 0.00597464 0)
(-0.0079032 0.00598113 0)
(-0.00888251 0.00594809 0)
(-0.00986145 0.00588025 0)
(-0.010836 0.00578035 0)
(-0.0118017 0.00564922 0)
(-0.0127537 0.00548601 0)
(-0.0136866 0.0052882 0)
(-0.0145946 0.00505183 0)
(-0.0154714 0.00477156 0)
(-0.0163098 0.00444095 0)
(-0.0171014 0.00405265 0)
(-0.017837 0.00359875 0)
(-0.0185055 0.00307118 0)
(-0.0190947 0.00246217 0)
(-0.0195904 0.00176492 0)
(-0.0199765 0.000974217 0)
(-0.0202354 8.74003e-05 0)
(-0.0203477 -0.000894308 0)
(-0.0202931 -0.00196556 0)
(-0.02005 -0.00311506 0)
(-0.0195975 -0.00432485 0)
(-0.0189162 -0.00556913 0)
(-0.0179898 -0.0068136 0)
(-0.016808 -0.00801529 0)
(-0.0153685 -0.00912314 0)
(-0.0136793 -0.0100794 0)
(-0.0117607 -0.0108219 0)
(-0.00964431 -0.011285 0)
(-0.00738014 -0.0113957 0)
(-0.0050619 -0.0110492 0)
(-0.00275941 -0.00995487 0)
(-0.00062977 -0.00660068 0)
(-0.000303909 0.00347241 0)
(-0.00121327 0.00524513 0)
(-0.00215847 0.00592784 0)
(-0.00312365 0.00632904 0)
(-0.00410075 0.00659882 0)
(-0.00507682 0.00678055 0)
(-0.00605426 0.00689431 0)
(-0.00703546 0.00695221 0)
(-0.00802078 0.00696256 0)
(-0.00900918 0.0069312 0)
(-0.00999859 0.006862 0)
(-0.0109862 0.00675702 0)
(-0.0119687 0.00661663 0)
(-0.0129421 0.00643949 0)
(-0.013902 0.00622261 0)
(-0.0148437 0.00596145 0)
(-0.0157615 0.00564994 0)
(-0.0166492 0.0052807 0)
(-0.0174991 0.00484523 0)
(-0.0183026 0.00433425 0)
(-0.0190492 0.00373806 0)
(-0.0197267 0.00304706 0)
(-0.0203206 0.00225244 0)
(-0.0208138 0.00134688 0)
(-0.0211869 0.000325685 0)
(-0.0214174 -0.000812315 0)
(-0.0214806 -0.00206306 0)
(-0.0213492 -0.00341614 0)
(-0.0209946 -0.00485335 0)
(-0.0203886 -0.00634693 0)
(-0.0195051 -0.00785828 0)
(-0.0183237 -0.0093373 0)
(-0.0168336 -0.0107226 0)
(-0.0150374 -0.0119434 0)
(-0.0129545 -0.0129221 0)
(-0.0106231 -0.0135771 0)
(-0.00810864 -0.0138181 0)
(-0.0055304 -0.0135162 0)
(-0.00298144 -0.0123053 0)
(-0.000661993 -0.00826863 0)
(-0.000301594 0.00419431 0)
(-0.00121363 0.00619377 0)
(-0.00217015 0.00690971 0)
(-0.00315041 0.00731346 0)
(-0.00414398 0.00758183 0)
(-0.00513583 0.00776372 0)
(-0.00612749 0.0078797 0)
(-0.00712152 0.00794102 0)
(-0.00811904 0.00795484 0)
(-0.00911999 0.00792596 0)
(-0.0101235 0.00785739 0)
(-0.0111278 0.00775053 0)
(-0.0121309 0.00760518 0)
(-0.0131299 0.0074195 0)
(-0.0141217 0.00719 0)
(-0.0151026 0.00691151 0)
(-0.0160681 0.00657721 0)
(-0.0170131 0.00617875 0)
(-0.0179312 0.00570639 0)
(-0.0188146 0.00514929 0)
(-0.0196536 0.00449585 0)
(-0.0204365 0.00373425 0)
(-0.0211487 0.00285306 0)
(-0.0217724 0.00184192 0)
(-0.0222862 0.000692923 0)
(-0.0226645 -0.00059834 0)
(-0.0228772 -0.00203141 0)
(-0.0228902 -0.00359829 0)
(-0.0226655 -0.00528232 0)
(-0.0221635 -0.00705529 0)
(-0.0213449 -0.008875 0)
(-0.0201757 -0.0106837 0)
(-0.0186324 -0.0124072 0)
(-0.0167093 -0.0139568 0)
(-0.0144244 -0.0152327 0)
(-0.0118244 -0.0161282 0)
(-0.00899564 -0.0165268 0)
(-0.00609198 -0.0162667 0)
(-0.00323678 -0.0148967 0)
(-0.000691247 -0.0100587 0)
(-0.000296825 0.00491216 0)
(-0.00120613 0.00714612 0)
(-0.00216979 0.00790257 0)
(-0.00316158 0.00831247 0)
(-0.00416944 0.00858043 0)
(-0.00517639 0.00876204 0)
(-0.00618289 0.00887937 0)
(-0.00719136 0.00894349 0)
(-0.00820328 0.00896088 0)
(-0.00921939 0.00893556 0)
(-0.0102398 0.00886981 0)
(-0.0112639 0.00876443 0)
(-0.0122908 0.00861871 0)
(-0.013319 0.00843033 0)
(-0.0143468 0.00819531 0)
(-0.0153718 0.0079079 0)
(-0.016391 0.00756052 0)
(-0.0174007 0.00714385 0)
(-0.0183961 0.00664683 0)
(-0.0193708 0.00605694 0)
(-0.0203165 0.00536043 0)
(-0.0212223 0.00454279 0)
(-0.0220741 0.00358929 0)
(-0.0228538 0.00248562 0)
(-0.0235383 0.00121921 0)
(-0.0240992 -0.000219445 0)
(-0.0245008 -0.00183464 0)
(-0.0247005 -0.00362432 0)
(-0.0246498 -0.00557578 0)
(-0.0242941 -0.00766266 0)
(-0.0235769 -0.00984087 0)
(-0.0224446 -0.0120448 0)
(-0.0208554 -0.014185 0)
(-0.0187894 -0.0161484 0)
(-0.0162602 -0.0178031 0)
(-0.0133242 -0.0190048 0)
(-0.0100957 -0.0195974 0)
(-0.00677614 -0.0193748 0)
(-0.00353382 -0.017784 0)
(-0.000716728 -0.0119871 0)
(-0.000290579 0.00562199 0)
(-0.00119451 0.00809882 0)
(-0.00216249 0.008903 0)
(-0.00316313 0.00932343 0)
(-0.0041833 0.0095931 0)
(-0.00520431 0.00977518 0)
(-0.00622558 0.00989399 0)
(-0.00724915 0.00996106 0)
(-0.00827674 0.00998264 0)
(-0.00930963 0.00996227 0)
(-0.0103488 0.00990176 0)
(-0.0113947 0.00980145 0)
(-0.0124477 0.00966022 0)
(-0.0135078 0.0094754 0)
(-0.0145746 0.0092426 0)
(-0.0156474 0.00895556 0)
(-0.016725 0.00860605 0)
(-0.0178056 0.00818379 0)
(-0.0188864 0.00767646 0)
(-0.0199628 0.00706975 0)
(-0.0210287 0.00634759 0)
(-0.0220749 0.00549236 0)
(-0.0230884 0.0044854 0)
(-0.0240518 0.00330741 0)
(-0.0249413 0.00193973 0)
(-0.0257252 0.000365772 0)
(-0.0263631 -0.00142686 0)
(-0.0268044 -0.00344476 0)
(-0.0269867 -0.00568314 0)
(-0.0268376 -0.00812135 0)
(-0.0262776 -0.0107168 0)
(-0.0252259 -0.0133974 0)
(-0.0236122 -0.0160559 0)
(-0.0213932 -0.0185472 0)
(-0.0185713 -0.0206934 0)
(-0.0152124 -0.0222939 0)
(-0.0114682 -0.0231323 0)
(-0.00761079 -0.0229385 0)
(-0.00387395 -0.0210381 0)
(-0.00072955 -0.0140675 0)
(-0.000283717 0.00632214 0)
(-0.00118108 0.00904984 0)
(-0.00215148 0.00990863 0)
(-0.00315898 0.0103442 0)
(-0.00418973 0.0106183 0)
(-0.00522359 0.0108024 0)
(-0.006259 0.0109235 0)
(-0.0072976 0.0109943 0)
(-0.00834118 0.0110211 0)
(-0.00939146 0.0110073 0)
(-0.0104502 0.0109547 0)
(-0.0115189 0.0108632 0)
(-0.0125991 0.0107316 0)
(-0.0136922 0.0105569 0)
(-0.0147996 0.0103346 0)
(-0.0159224 0.0100581 0)
(-0.0170616 0.00971854 0)
(-0.0182176 0.00930497 0)
(-0.0193899 0.00880384 0)
(-0.020577 0.00819917 0)
(-0.0217753 0.00747243 0)
(-0.0229783 0.00660269 0)
(-0.0241756 0.00556676 0)
(-0.0253516 0.00433944 0)
(-0.0264831 0.00289437 0)
(-0.0275372 0.00120557 0)
(-0.0284692 -0.000751488 0)
(-0.0292196 -0.00299552 0)
(-0.0297117 -0.00553545 0)
(-0.0298517 -0.0083626 0)
(-0.0295301 -0.0114415 0)
(-0.0286286 -0.0146984 0)
(-0.0270332 -0.0180072 0)
(-0.0246611 -0.0211815 0)
(-0.0214907 -0.0239783 0)
(-0.0175945 -0.0261123 0)
(-0.0131754 -0.027271 0)
(-0.00861148 -0.0270904 0)
(-0.00423668 -0.0247492 0)
(-0.000711454 -0.016303 0)
(-0.000276781 0.00701203 0)
(-0.00116721 0.00999809 0)
(-0.00213883 0.0109179 0)
(-0.00315171 0.011373 0)
(-0.00419151 0.0116546 0)
(-0.0052369 0.0118426 0)
(-0.00628542 0.0119673 0)
(-0.00733831 0.0120428 0)
(-0.00839735 0.0120762 0)
(-0.00946463 0.012071 0)
(-0.0105425 0.0120289 0)
(-0.0116336 0.0119501 0)
(-0.0127407 0.0118333 0)
(-0.0138666 0.0116756 0)
(-0.0150145 0.0114725 0)
(-0.0161877 0.0112172 0)
(-0.0173894 0.0109008 0)
(-0.0186228 0.0105117 0)
(-0.0198906 0.0100355 0)
(-0.0211945 0.00945468 0)
(-0.0225349 0.0087485 0)
(-0.0239092 0.0078926 0)
(-0.0253111 0.00685892 0)
(-0.0267286 0.00561559 0)
(-0.0281413 0.00412696 0)
(-0.0295172 0.00235477 0)
(-0.0308091 0.000259536 0)
(-0.0319502 -0.0021961 0)
(-0.0328491 -0.00504213 0)
(-0.0333872 -0.00829073 0)
(-0.0334178 -0.0119245 0)
(-0.0327705 -0.0158763 0)
(-0.031269 -0.020006 0)
(-0.0287615 -0.0240769 0)
(-0.0251784 -0.027754 0)
(-0.0205896 -0.0306209 0)
(-0.0152691 -0.0322118 0)
(-0.00976075 -0.0320135 0)
(-0.00456649 -0.0290188 0)
(-0.00063052 -0.0186679 0)
(-0.000270074 0.00769175 0)
(-0.00115373 0.0109431 0)
(-0.00212583 0.0119296 0)
(-0.00314301 0.0124086 0)
(-0.00419051 0.0127006 0)
(-0.00524602 0.0128944 0)
(-0.00630628 0.0130242 0)
(-0.00737214 0.0131058 0)
(-0.00844533 0.013147 0)
(-0.00952823 0.0131522 0)
(-0.0106238 0.0131234 0)
(-0.0117356 0.013061 0)
(-0.0128676 0.0129642 0)
(-0.0140243 0.0128304 0)
(-0.0152105 0.0126552 0)
(-0.016432 0.0124324 0)
(-0.0176945 0.0121531 0)
(-0.0190044 0.0118055 0)
(-0.0203681 0.0113749 0)
(-0.0217917 0.0108428 0)
(-0.0232801 0.0101864 0)
(-0.0248364 0.00937839 0)
(-0.0264604 0.00838584 0)
(-0.0281457 0.00716964 0)
(-0.0298778 0.00568385 0)
(-0.0316288 0.00387543 0)
(-0.0333524 0.0016852 0)
(-0.0349778 -0.000949375 0)
(-0.0364002 -0.00408828 0)
(-0.0374752 -0.00777829 0)
(-0.0380126 -0.0120357 0)
(-0.0377739 -0.0168197 0)
(-0.0364893 -0.021988 0)
(-0.0339025 -0.0272508 0)
(-0.0298389 -0.0321434 0)
(-0.0243417 -0.0360456 0)
(-0.0177858 -0.0382377 0)
(-0.0109847 -0.0379527 0)
(-0.00474285 -0.0339449 0)
(-0.000431279 -0.0210776 0)
(-0.000263756 0.00836182 0)
(-0.00114111 0.0118847 0)
(-0.00211334 0.0129431 0)
(-0.00313399 0.0134497 0)
(-0.00418801 0.0137549 0)
(-0.00525218 0.0139565 0)
(-0.00632254 0.0140928 0)
(-0.00739954 0.0141815 0)
(-0.00848482 0.0142319 0)
(-0.00958099 0.0142491 0)
(-0.0106916 0.0142359 0)
(-0.011821 0.0141935 0)
(-0.0129744 0.0141215 0)
(-0.0141577 0.0140181 0)
(-0.0153779 0.0138796 0)
(-0.0166429 0.0137005 0)
(-0.0179614 0.0134725 0)
(-0.0193433 0.0131845 0)
(-0.0207992 0.0128217 0)
(-0.0223401 0.0123656 0)
(-0.0239771 0.0117921 0)
(-0.0257203 0.0110717 0)
(-0.0275772 0.0101671 0)
(-0.0295507 0.00903215 0)
(-0.031635 0.00760977 0)
(-0.033811 0.00583063 0)
(-0.0360389 0.00361164 0)
(-0.0382485 0.000857325 0)
(-0.040328 -0.00253385 0)
(-0.0421112 -0.00665901 0)
(-0.0433614 -0.0115941 0)
(-0.0437597 -0.0173544 0)
(-0.0429023 -0.0238297 0)
(-0.0403703 -0.0306827 0)
(-0.035798 -0.0372833 0)
(-0.0291206 -0.0426939 0)
(-0.0208407 -0.0457277 0)
(-0.012212 -0.0452001 0)
(-0.00458981 -0.0395685 0)
(-2.60506e-05 -0.0233403 0)
(-0.000257911 0.00902297 0)
(-0.00112965 0.0128232 0)
(-0.00210193 0.013958 0)
(-0.00312551 0.0144956 0)
(-0.004185 0.0148162 0)
(-0.00525637 0.0150272 0)
(-0.00633496 0.015171 0)
(-0.00742082 0.0152676 0)
(-0.00851546 0.0153281 0)
(-0.00962167 0.0153586 0)
(-0.0107434 0.015363 0)
(-0.0118859 0.0153434 0)
(-0.0130554 0.0153004 0)
(-0.0142593 0.0152334 0)
(-0.0155065 0.0151398 0)
(-0.0168073 0.0150152 0)
(-0.0181735 0.0148527 0)
(-0.0196186 0.0146423 0)
(-0.0211577 0.0143705 0)
(-0.0228076 0.0140192 0)
(-0.0245864 0.0135649 0)
(-0.0265125 0.0129766 0)
(-0.0286036 0.0122142 0)
(-0.0308743 0.0112253 0)
(-0.033332 0.00994226 0)
(-0.0359715 0.0082782 0)
(-0.0387667 0.00612401 0)
(-0.0416587 0.00334513 0)
(-0.044539 -0.000215875 0)
(-0.0472343 -0.00472213 0)
(-0.0494706 -0.0103444 0)
(-0.0508452 -0.0172021 0)
(-0.0507893 -0.0252776 0)
(-0.0486237 -0.0342303 0)
(-0.0436785 -0.0432574 0)
(-0.0356121 -0.0509151 0)
(-0.0250635 -0.0552484 0)
(-0.0138406 -0.0542426 0)
(-0.00419478 -0.0458782 0)
(0.000655857 -0.0251408 0)
(-0.000252593 0.00967608 0)
(-0.00111961 0.013759 0)
(-0.00209215 0.0149742 0)
(-0.00311835 0.0155454 0)
(-0.00418246 0.0158833 0)
(-0.00525958 0.0161048 0)
(-0.00634438 0.0162566 0)
(-0.00743646 0.0163616 0)
(-0.00853715 0.0164324 0)
(-0.0096493 0.0164767 0)
(-0.0107773 0.0164998 0)
(-0.0119269 0.016505 0)
(-0.0131055 0.0164944 0)
(-0.0143218 0.0164686 0)
(-0.0155866 0.016427 0)
(-0.0169124 0.0163667 0)
(-0.0183139 0.0162828 0)
(-0.0198084 0.0161674 0)
(-0.0214158 0.0160093 0)
(-0.023159 0.0157924 0)
(-0.0250634 0.0154948 0)
(-0.0271571 0.0150863 0)
(-0.0294695 0.0145258 0)
(-0.0320295 0.0137568 0)
(-0.0348618 0.012703 0)
(-0.0379815 0.0112613 0)
(-0.0413858 0.00929596 0)
(-0.0450398 0.00663184 0)
(-0.0488605 0.00304705 0)
(-0.0526975 -0.00171001 0)
(-0.0562728 -0.00792734 0)
(-0.059122 -0.0159061 0)
(-0.0605108 -0.0258205 0)
(-0.0593866 -0.0374404 0)
(-0.0546266 -0.0498244 0)
(-0.0454186 -0.0608816 0)
(-0.0325241 -0.0674569 0)
(-0.0181743 -0.0660572 0)
(-0.00509032 -0.0535308 0)
(0.00143659 -0.0264882 0)
(-0.000247871 0.0103222 0)
(-0.00111128 0.0146928 0)
(-0.00208462 0.0159917 0)
(-0.00311345 0.0165987 0)
(-0.00418154 0.0169551 0)
(-0.00526308 0.0171875 0)
(-0.00635198 0.0173473 0)
(-0.00744736 0.01746 0)
(-0.00855026 0.0175406 0)
(-0.00966354 0.0175984 0)
(-0.0107918 0.0176402 0)
(-0.0119414 0.0176711 0)
(-0.0131204 0.0176948 0)
(-0.014339 0.0177139 0)
(-0.0156093 0.0177296 0)
(-0.0169459 0.0177416 0)
(-0.0183665 0.0177476 0)
(-0.0198916 0.0177429 0)
(-0.0215459 0.0177193 0)
(-0.0233579 0.0176646 0)
(-0.0253609 0.0175603 0)
(-0.0275927 0.0173793 0)
(-0.0300953 0.0170823 0)
(-0.0329134 0.0166121 0)
(-0.0360924 0.0158874 0)
(-0.0396739 0.0147939 0)
(-0.043689 0.0131741 0)
(-0.0481452 0.0108166 0)
(-0.0530192 0.00744061 0)
(-0.0582192 0.00269803 0)
(-0.0635372 -0.00385377 0)
(-0.0685335 -0.0127523 0)
(-0.0723149 -0.0245074 0)
(-0.07344 -0.0392275 0)
(-0.0701029 -0.0560507 0)
(-0.0612075 -0.072104 0)
(-0.0472569 -0.0823684 0)
(-0.0302371 -0.08176 0)
(-0.0118284 -0.0649559 0)
(0.00152474 -0.0292552 0)
(-0.000243863 0.0109625 0)
(-0.00110513 0.0156256 0)
(-0.00208022 0.0170111 0)
(-0.00311208 0.0176554 0)
(-0.00418383 0.0180307 0)
(-0.00526863 0.0182736 0)
(-0.00635955 0.0184403 0)
(-0.0074551 0.0185595 0)
(-0.00855598 0.0186482 0)
(-0.00966491 0.0187179 0)
(-0.0107866 0.0187773 0)
(-0.0119278 0.0188332 0)
(-0.0130972 0.0188914 0)
(-0.0143059 0.0189569 0)
(-0.0155673 0.0190332 0)
(-0.0168978 0.019123 0)
(-0.0183171 0.0192274 0)
(-0.0198489 0.0193455 0)
(-0.0215218 0.0194738 0)
(-0.0233695 0.0196051 0)
(-0.025432 0.0197265 0)
(-0.0277563 0.0198166 0)
(-0.0303963 0.0198411 0)
(-0.0334127 0.0197467 0)
(-0.0368727 0.0194535 0)
(-0.0408482 0.0188442 0)
(-0.0454134 0.0177518 0)
(-0.0506346 0.015945 0)
(-0.056585 0.0131073 0)
(-0.0632945 0.00881088 0)
(-0.0706903 0.00245261 0)
(-0.078452 -0.00679558 0)
(-0.085575 -0.0200482 0)
(-0.0904146 -0.0385266 0)
(-0.0900403 -0.0621455 0)
(-0.0832303 -0.0848485 0)
(-0.0698644 -0.0994824 0)
(-0.0517012 -0.101941 0)
(-0.0279205 -0.0841096 0)
(-0.000180057 -0.0373926 0)
(-0.000240772 0.0115985 0)
(-0.00110187 0.0165589 0)
(-0.00208021 0.0180333 0)
(-0.00311599 0.0187157 0)
(-0.00419152 0.0191096 0)
(-0.00527869 0.0193617 0)
(-0.00636962 0.0195332 0)
(-0.00746212 0.0196562 0)
(-0.00855644 0.0197501 0)
(-0.00965504 0.0198288 0)
(-0.0107626 0.0199028 0)
(-0.0118861 0.0199814 0)
(-0.0130346 0.0200725 0)
(-0.0142197 0.0201834 0)
(-0.0154557 0.0203208 0)
(-0.0167603 0.0204906 0)
(-0.0181547 0.0206978 0)
(-0.0196647 0.0209463 0)
(-0.0213216 0.0212382 0)
(-0.0231631 0.0215726 0)
(-0.0252343 0.0219441 0)
(-0.0275891 0.0223394 0)
(-0.030291 0.0227327 0)
(-0.0334141 0.02308 0)
(-0.0370452 0.0233103 0)
(-0.041286 0.0233159 0)
(-0.0462536 0.0229386 0)
(-0.0520858 0.0219533 0)
(-0.0589617 0.0200495 0)
(-0.0670427 0.0167449 0)
(-0.0764115 0.0112742 0)
(-0.086768 0.00217653 0)
(-0.09637 -0.0131264 0)
(-0.101554 -0.036811 0)
(-0.100941 -0.0658165 0)
(-0.0964191 -0.0931273 0)
(-0.0874305 -0.115344 0)
(-0.071447 -0.12484 0)
(-0.0466184 -0.11143 0)
(-0.00540973 -0.0553091 0)
(-0.000238918 0.0122325 0)
(-0.00110253 0.0174947 0)
(-0.00208634 0.0190599 0)
(-0.00312764 0.0197803 0)
(-0.00420758 0.0201914 0)
(-0.00529661 0.0204502 0)
(-0.00638571 0.0206233 0)
(-0.00747192 0.0207461 0)
(-0.0085549 0.0208409 0)
(-0.00963679 0.0209239 0)
(-0.0107221 0.0210081 0)
(-0.0118178 0.0211048 0)
(-0.0129331 0.0212247 0)
(-0.0140797 0.0213776 0)
(-0.0152725 0.0215733 0)
(-0.0165294 0.0218213 0)
(-0.0178724 0.022131 0)
(-0.0193283 0.0225114 0)
(-0.0209297 0.0229709 0)
(-0.0227161 0.023516 0)
(-0.024735 0.02415 0)
(-0.027044 0.0248695 0)
(-0.0297114 0.0256605 0)
(-0.0328197 0.0264925 0)
(-0.0364683 0.0273117 0)
(-0.0407801 0.0280322 0)
(-0.0459032 0.0285249 0)
(-0.0520393 0.0286035 0)
(-0.0594302 0.0279861 0)
(-0.0683144 0.0261337 0)
(-0.0788851 0.0218926 0)
(-0.090335 0.0125098 0)
(-0.0993195 -0.00636596 0)
(-0.102576 -0.0351926 0)
(-0.101603 -0.0672405 0)
(-0.0977077 -0.0991268 0)
(-0.089614 -0.128523 0)
(-0.0774891 -0.145803 0)
(-0.0553799 -0.141262 0)
(-0.0148173 -0.0882484 0)
(-0.000238773 0.0128673 0)
(-0.00110861 0.0184361 0)
(-0.00210107 0.0200933 0)
(-0.00315026 0.0208509 0)
(-0.00423592 0.0212767 0)
(-0.00532672 0.0215383 0)
(-0.00641238 0.0217081 0)
(-0.00748903 0.0218251 0)
(-0.00855574 0.0219148 0)
(-0.00961422 0.0219958 0)
(-0.0106687 0.0220836 0)
(-0.011726 0.0221921 0)
(-0.0127951 0.0223341 0)
(-0.0138877 0.0225225 0)
(-0.0150183 0.0227701 0)
(-0.0162047 0.0230901 0)
(-0.0174684 0.0234963 0)
(-0.0188359 0.0240031 0)
(-0.0203391 0.0246252 0)
(-0.0220169 0.0253769 0)
(-0.0239161 0.0262704 0)
(-0.026093 0.0273133 0)
(-0.0286154 0.0285046 0)
(-0.0315654 0.0298305 0)
(-0.0350445 0.0312595 0)
(-0.0391796 0.0327364 0)
(-0.0441318 0.0341752 0)
(-0.0501228 0.0354506 0)
(-0.0573926 0.036288 0)
(-0.0661944 0.0360031 0)
(-0.0766097 0.0327131 0)
(-0.0870725 0.0218653 0)
(-0.0936332 -0.00135087 0)
(-0.0946579 -0.0347506 0)
(-0.0927239 -0.0703103 0)
(-0.0885431 -0.105565 0)
(-0.0812526 -0.138423 0)
(-0.0699303 -0.163181 0)
(-0.0522128 -0.169168 0)
(-0.0197261 -0.134022 0)
(-0.000241005 0.0135069 0)
(-0.00112212 0.0193871 0)
(-0.00212759 0.0211368 0)
(-0.00318809 0.0219296 0)
(-0.00428151 0.0223661 0)
(-0.00537444 0.0226253 0)
(-0.00645521 0.0227852 0)
(-0.00751903 0.0228893 0)
(-0.00856433 0.0229659 0)
(-0.0095924 0.0230367 0)
(-0.0106072 0.0231197 0)
(-0.0116151 0.0232311 0)
(-0.0126249 0.0233863 0)
(-0.0136476 0.0236007 0)
(-0.0146971 0.0238902 0)
(-0.0157899 0.0242713 0)
(-0.0169463 0.0247622 0)
(-0.0181907 0.0253821 0)
(-0.0195527 0.0261519 0)
(-0.0210676 0.027093 0)
(-0.022778 0.028226 0)
(-0.0247343 0.0295685 0)
(-0.0269968 0.0311321 0)
(-0.029638 0.0329194 0)
(-0.0327475 0.0349216 0)
(-0.0364349 0.0371152 0)
(-0.0408468 0.0394625 0)
(-0.0461608 0.0418837 0)
(-0.0525452 0.0440645 0)
(-0.0601904 0.0450384 0)
(-0.0688718 0.0418833 0)
(-0.0766586 0.028627 0)
(-0.080217 0.00122559 0)
(-0.0794493 -0.0351179 0)
(-0.0773815 -0.0725023 0)
(-0.0742156 -0.109625 0)
(-0.0688447 -0.145583 0)
(-0.0587967 -0.177232 0)
(-0.0447768 -0.191456 0)
(-0.0161098 -0.173633 0)
(-0.00024652 0.0141567 0)
(-0.00114574 0.0203533 0)
(-0.00217006 0.0221951 0)
(-0.00324642 0.0230197 0)
(-0.00435042 0.0234613 0)
(-0.00544625 0.0237107 0)
(-0.00652076 0.0238524 0)
(-0.00756827 0.0239341 0)
(-0.00858667 0.023988 0)
(-0.00957696 0.0240386 0)
(-0.0105428 0.0241063 0)
(-0.0114903 0.0242097 0)
(-0.0124275 0.0243666 0)
(-0.0133649 0.0245948 0)
(-0.0143147 0.0249126 0)
(-0.0152919 0.0253397 0)
(-0.0163143 0.0258977 0)
(-0.0174029 0.0266102 0)
(-0.018583 0.027503 0)
(-0.0198843 0.0286035 0)
(-0.0213414 0.0299388 0)
(-0.0229947 0.0315344 0)
(-0.0248908 0.0334114 0)
(-0.0270841 0.0355848 0)
(-0.0296389 0.0380634 0)
(-0.0326291 0.0408478 0)
(-0.0361517 0.0439328 0)
(-0.0402953 0.0472401 0)
(-0.0451291 0.050378 0)
(-0.0506876 0.052006 0)
(-0.0566592 0.0482653 0)
(-0.0614081 0.0325978 0)
(-0.0626586 0.00218586 0)
(-0.0614854 -0.0357646 0)
(-0.0602141 -0.0742678 0)
(-0.0585894 -0.112598 0)
(-0.0554103 -0.150883 0)
(-0.0484818 -0.187472 0)
(-0.0376307 -0.208687 0)
(-0.0137032 -0.201494 0)
(-0.000256535 0.0148242 0)
(-0.00118295 0.0213422 0)
(-0.00223373 0.0232743 0)
(-0.00333177 0.0241254 0)
(-0.0044499 0.0245643 0)
(-0.00554957 0.0247942 0)
(-0.0066162 0.0249069 0)
(-0.0076434 0.0249551 0)
(-0.0086288 0.0249745 0)
(-0.00957331 0.0249928 0)
(-0.0104805 0.025033 0)
(-0.0113563 0.0251159 0)
(-0.0122081 0.025261 0)
(-0.0130451 0.0254881 0)
(-0.0138782 0.0258177 0)
(-0.0147197 0.0262716 0)
(-0.0155842 0.0268742 0)
(-0.0164883 0.0276523 0)
(-0.0174513 0.0286351 0)
(-0.0184954 0.0298539 0)
(-0.0196451 0.03134 0)
(-0.0209277 0.0331231 0)
(-0.0223719 0.035229 0)
(-0.0240081 0.0376785 0)
(-0.0258668 0.0404869 0)
(-0.0279753 0.0436612 0)
(-0.0303568 0.0471995 0)
(-0.0330053 0.0509945 0)
(-0.0359409 0.0545796 0)
(-0.0387624 0.0561797 0)
(-0.0418107 0.0517127 0)
(-0.0438292 0.0344483 0)
(-0.043759 0.00262455 0)
(-0.0429572 -0.0359533 0)
(-0.0427807 -0.0749323 0)
(-0.0427075 -0.113746 0)
(-0.0417531 -0.153537 0)
(-0.0380761 -0.194253 0)
(-0.0296537 -0.224213 0)
(-0.0125355 -0.225667 0)
(-0.000272671 0.0155193 0)
(-0.0012382 0.0223635 0)
(-0.0023251 0.0243822 0)
(-0.00345195 0.0252519 0)
(-0.00458825 0.0256774 0)
(-0.00569245 0.0258755 0)
(-0.00674879 0.0259458 0)
(-0.00775061 0.0259466 0)
(-0.00869573 0.0259179 0)
(-0.00958545 0.0258903 0)
(-0.0104236 0.0258893 0)
(-0.011216 0.0259374 0)
(-0.0119697 0.0260558 0)
(-0.0126925 0.0262654 0)
(-0.0133935 0.0265879 0)
(-0.014082 0.0270467 0)
(-0.0147688 0.0276676 0)
(-0.0154652 0.0284793 0)
(-0.0161839 0.0295129 0)
(-0.0169382 0.0308011 0)
(-0.0177416 0.0323765 0)
(-0.0186067 0.0342689 0)
(-0.0195432 0.0365031 0)
(-0.0205557 0.0390967 0)
(-0.0216391 0.0420581 0)
(-0.0227734 0.0453848 0)
(-0.0239095 0.0490547 0)
(-0.0249657 0.0529276 0)
(-0.0257859 0.0563488 0)
(-0.0260514 0.0574488 0)
(-0.0262339 0.0524523 0)
(-0.0259688 0.034735 0)
(-0.0252055 0.00300282 0)
(-0.0251433 -0.035305 0)
(-0.0263501 -0.0741682 0)
(-0.0279896 -0.113125 0)
(-0.0292345 -0.153916 0)
(-0.0282343 -0.197298 0)
(-0.0233821 -0.235276 0)
(-0.00939517 -0.243986 0)
(-0.000297094 0.0162555 0)
(-0.00131723 0.0234298 0)
(-0.0024522 0.0255285 0)
(-0.00361614 0.0264054 0)
(-0.00477462 0.026803 0)
(-0.00588306 0.0269533 0)
(-0.00692505 0.0269647 0)
(-0.00789442 0.0269018 0)
(-0.00879001 0.0268092 0)
(-0.00961418 0.0267207 0)
(-0.0103717 0.0266637 0)
(-0.0110685 0.0266621 0)
(-0.0117114 0.026738 0)
(-0.0123073 0.0269126 0)
(-0.0128627 0.0272081 0)
(-0.0133843 0.0276482 0)
(-0.0138783 0.0282591 0)
(-0.0143505 0.0290698 0)
(-0.0148066 0.0301114 0)
(-0.0152511 0.0314161 0)
(-0.0156862 0.0330148 0)
(-0.0161106 0.0349335 0)
(-0.0165163 0.0371905 0)
(-0.016885 0.0397929 0)
(-0.0171816 0.0427328 0)
(-0.017347 0.0459824 0)
(-0.0172782 0.049472 0)
(-0.0168137 0.052987 0)
(-0.0157323 0.0558018 0)
(-0.0139541 0.0562398 0)
(-0.0116273 0.0508322 0)
(-0.0094603 0.0337789 0)
(-0.00827643 0.00345856 0)
(-0.00909082 -0.0336078 0)
(-0.0118367 -0.0717493 0)
(-0.0154129 -0.110602 0)
(-0.0188354 -0.152243 0)
(-0.020147 -0.197951 0)
(-0.0189924 -0.24262 0)
(-0.00718542 -0.259034 0)
(-0.000332729 0.0170503 0)
(-0.00142739 0.024557 0)
(-0.00262484 0.0267246 0)
(-0.00383489 0.0275921 0)
(-0.00501865 0.0279424 0)
(-0.00612879 0.0280242 0)
(-0.00714934 0.0279566 0)
(-0.00807593 0.0278112 0)
(-0.00890957 0.0276374 0)
(-0.00965477 0.0274718 0)
(-0.0103179 0.0273437 0)
(-0.0109058 0.0272774 0)
(-0.0114252 0.027295 0)
(-0.011882 0.0274175 0)
(-0.0122808 0.027666 0)
(-0.0126248 0.0280636 0)
(-0.012916 0.0286358 0)
(-0.0131547 0.0294103 0)
(-0.0133394 0.0304168 0)
(-0.0134664 0.0316852 0)
(-0.0135281 0.0332422 0)
(-0.0135113 0.0351077 0)
(-0.0133942 0.0372897 0)
(-0.0131417 0.0397799 0)
(-0.0126992 0.0425467 0)
(-0.0119845 0.0455276 0)
(-0.0108695 0.048597 0)
(-0.00917282 0.0514674 0)
(-0.0066819 0.05346 0)
(-0.00330612 0.0530729 0)
(0.000752001 0.0473992 0)
(0.00435838 0.0316309 0)
(0.00589106 0.0038037 0)
(0.00435707 -0.0309528 0)
(0.000217575 -0.0676413 0)
(-0.00509588 -0.106094 0)
(-0.0103701 -0.148545 0)
(-0.0134584 -0.196573 0)
(-0.0152011 -0.246813 0)
(-0.00560281 -0.27151 0)
(-0.000383612 0.0179271 0)
(-0.0015783 0.0257651 0)
(-0.0028551 0.0279837 0)
(-0.00412007 0.028818 0)
(-0.00532972 0.0290945 0)
(-0.00643485 0.0290818 0)
(-0.00742189 0.028911 0)
(-0.00829022 0.0286615 0)
(-0.00904482 0.0283877 0)
(-0.0096937 0.0281288 0)