# vtk DataFile Version 2.0
tracks
ASCII
DATASET POLYDATA
POINTS 12030 float
-0.0206 0.000999956 1e-05 -0.02058 0.000999959 1e-05 -0.02056 0.000999965 1e-05 -0.02054 0.000999974
1e-05 -0.02052 0.000999985 1e-05 -0.0205 0.001 1e-05 -0.0202034 0.00100022 1e-05
-0.0199069 0.00100067 1e-05 -0.0196103 0.00100132 1e-05 -0.0193137 0.00100219 1e-05 -0.0190172
0.00100326 1e-05 -0.0187132 0.00100466 1e-05 -0.0184093 0.00100588 1e-05 -0.0181054 0.0010071
1e-05 -0.0178015 0.00100832 1e-05 -0.0174976 0.00100953 1e-05 -0.0172058 0.00101083 1e-05
-0.016914 0.00101193 1e-05 -0.0166222 0.00101303 1e-05 -0.0163305 0.00101413 1e-05 -0.0160387
0.00101522 1e-05 -0.0157586 0.00101636 1e-05 -0.0154784 0.00101744 1e-05 -0.0151983 0.00101856
1e-05 -0.0149182 0.00101971 1e-05 -0.0146381 0.0010209 1e-05 -0.0143744 0.00102208 1e-05
-0.0141107 0.00102327 1e-05 -0.0138471 0.00102449 1e-05 -0.0135834 0.00102574 1e-05 -0.0133607
0.00102682 1e-05 -0.0133472 0.00102688 1e-05 -0.0133338 0.00102695 1e-05 -0.0133203 0.00102702
1e-05 -0.0133069 0.00102708 1e-05 -0.0132934 0.00102715 1e-05 -0.0130353 0.00102844 1e-05
-0.0127771 0.00102974 1e-05 -0.0125189 0.00103106 1e-05 -0.0122607 0.00103239 1e-05 -0.0120025
0.00103375 1e-05 -0.0117547 0.00103505 1e-05 -0.0115068 0.00103637 1e-05 -0.0112589 0.00103769
1e-05 -0.0110111 0.00103901 1e-05 -0.0107632 0.00104034 1e-05 -0.0105252 0.00104162 1e-05
-0.0102873 0.00104289 1e-05 -0.0100493 0.00104417 1e-05 -0.00981133 0.00104545 1e-05 -0.00957337
0.00104673 1e-05 -0.00934491 0.00104795 1e-05 -0.00911645 0.00104917 1e-05 -0.008888 0.00105039
1e-05 -0.00865954 0.0010516 1e-05 -0.00843108 0.00105281 1e-05 -0.00821175 0.00105397 1e-05
-0.00799242 0.00105513 1e-05 -0.00777309 0.00105628 1e-05 -0.00755376 0.00105743 1e-05 -0.00733443
0.00105857 1e-05 -0.00712387 0.00105966 1e-05 -0.0069133 0.00106075 1e-05 -0.00670273 0.00106183
1e-05 -0.00649216 0.00106292 1e-05 -0.0062816 0.00106399 1e-05 -0.00607944 0.00106501 1e-05
-0.00587729 0.00106604 1e-05 -0.00567514 0.00106706 1e-05 -0.00547298 0.00106807 1e-05 -0.00527083
0.00106909 1e-05 -0.00507675 0.00107005 1e-05 -0.00488267 0.00107101 1e-05 -0.0046886 0.00107197
1e-05 -0.00449452 0.00107292 1e-05 -0.00430044 0.00107387 1e-05 -0.00411412 0.00107478 1e-05
-0.0039278 0.00107568 1e-05 -0.00374147 0.00107658 1e-05 -0.00355515 0.00107748 1e-05 -0.00336883
0.00107837 1e-05 -0.00318995 0.00107922 1e-05 -0.00301107 0.00108007 1e-05 -0.00283219 0.00108092
1e-05 -0.00265331 0.00108177 1e-05 -0.00247443 0.00108261 1e-05 -0.0023027 0.00108341 1e-05
-0.00213097 0.00108422 1e-05 -0.00195924 0.00108502 1e-05 -0.0017875 0.00108582 1e-05 -0.00161577
0.00108662 1e-05 -0.0014509 0.00108737 1e-05 -0.00128603 0.00108813 1e-05 -0.00112116 0.0010889
1e-05 -0.000956289 0.00108965 1e-05 -0.000791418 0.00109041 1e-05 -0.000633135 0.00109114 1e-05
-0.000474851 0.00109187 1e-05 -0.000316567 0.00109259 1e-05 -0.000158284 0.00109332 1e-05 0
0.00109404 1e-05 0.000105677 0.00109451 1e-05 0.000211355 0.00109499 1e-05 0.000317032 0.00109546
1e-05 0.00042271 0.00109593 1e-05 0.000528387 0.0010964 1e-05 0.000634886 0.00109686 1e-05
0.000741385 0.00109732 1e-05 0.000847885 0.00109778 1e-05 0.000954384 0.00109824 1e-05 0.00106088
0.00109869 1e-05 0.00116821 0.00109914 1e-05 0.00127554 0.00109959 1e-05 0.00138286 0.00110003
1e-05 0.00149019 0.00110047 1e-05 0.00159752 0.0011009 1e-05 0.00170568 0.00110132 1e-05
0.00181384 0.00110174 1e-05 0.001922 0.00110216 1e-05 0.00203016 0.00110256 1e-05 0.00213833
0.00110296 1e-05 0.00224733 0.00110334 1e-05 0.00235633 0.00110373 1e-05 0.00246533 0.0011041
1e-05 0.00257434 0.00110447 1e-05 0.00268334 0.00110483 1e-05 0.00279319 0.00110517 1e-05
0.00290304 0.00110552 1e-05 0.00301289 0.00110586 1e-05 0.00312274 0.00110619 1e-05 0.00323259
0.00110651 1e-05 0.00334329 0.00110682 1e-05 0.003454 0.00110713 1e-05 0.0035647 0.00110743
1e-05 0.0036754 0.00110773 1e-05 0.00378611 0.00110801 1e-05 0.00389767 0.00110829 1e-05
0.00400924 0.00110856 1e-05 0.0041208 0.00110883 1e-05 0.00423237 0.00110908 1e-05 0.00434393
0.00110933 1e-05 0.00445636 0.00110957 1e-05 0.00456879 0.00110981 1e-05 0.00468123 0.00111004
1e-05 0.00479366 0.00111026 1e-05 0.00490609 0.00111048 1e-05 0.0050194 0.00111068 1e-05
0.0051327 0.00111088 1e-05 0.00524601 0.00111107 1e-05 0.00535931 0.00111126 1e-05 0.00547262
0.00111143 1e-05 0.00558681 0.0011116 1e-05 0.005701 0.00111176 1e-05 0.00581518 0.00111192
1e-05 0.00592937 0.00111207 1e-05 0.00604356 0.00111221 1e-05 0.00615863 0.00111234 1e-05
0.00627371 0.00111247 1e-05 0.00638878 0.00111259 1e-05 0.00650386 0.0011127 1e-05 0.00661893
0.0011128 1e-05 0.0067349 0.0011129 1e-05 0.00685087 0.00111299 1e-05 0.00696684 0.00111307
1e-05 0.00708281 0.00111314 1e-05 0.00719878 0.00111321 1e-05 0.00727054 0.00111325 1e-05
0.00734229 0.00111328 1e-05 0.00741405 0.00111331 1e-05 0.00748581 0.00111334 1e-05 0.00755518
0.00111337 1e-05 0.00760077 0.00111338 1e-05 0.00764636 0.00111339 1e-05 0.00769195 0.00111341
1e-05 0.00773754 0.00111342 1e-05 0.00778313 0.00111343 1e-05 0.00790091 0.00111345 1e-05
0.00801869 0.00111346 1e-05 0.00813647 0.00111347 1e-05 0.00825425 0.00111347 1e-05 0.00837203
0.00111346 1e-05 0.00849073 0.00111344 1e-05 0.00860942 0.00111341 1e-05 0.00872812 0.00111338
1e-05 0.00884682 0.00111334 1e-05 0.00896551 0.00111329 1e-05 0.00908513 0.00111323 1e-05
0.00920475 0.00111317 1e-05 0.00932437 0.00111309 1e-05 0.00944398 0.00111301 1e-05 0.0095636
0.00111293 1e-05 0.00968415 0.00111282 1e-05 0.0098047 0.00111271 1e-05 0.00992525 0.0011126
1e-05 0.0100458 0.00111248 1e-05 0.0101663 0.00111235 1e-05 0.0102878 0.0011122 1e-05
0.0104093 0.00111205 1e-05 0.0105308 0.0011119 1e-05 0.0106523 0.00111173 1e-05 0.0107738
0.00111156 1e-05 0.0108962 0.00111137 1e-05 0.0110186 0.00111118 1e-05 0.0111411 0.00111098
1e-05 0.0112635 0.00111077 1e-05 0.0113859 0.00111056 1e-05 0.0115093 0.00111032 1e-05
0.0116327 0.00111008 1e-05 0.0117561 0.00110984 1e-05 0.0118795 0.00110959 1e-05 0.0120028
0.00110933 1e-05 0.0121272 0.00110905 1e-05 0.0122515 0.00110877 1e-05 0.0123759 0.00110848
1e-05 0.0125002 0.00110818 1e-05 0.0126245 0.00110788 1e-05 0.0127498 0.00110755 1e-05
0.0128752 0.00110722 1e-05 0.0130005 0.00110689 1e-05 0.0131258 0.00110655 1e-05 0.0132511
0.0011062 1e-05 0.0133774 0.00110582 1e-05 0.0135036 0.00110545 1e-05 0.0136299 0.00110507
1e-05 0.0137562 0.00110468 1e-05 0.0138825 0.00110428 1e-05 0.0140098 0.00110386 1e-05
0.014137 0.00110344 1e-05 0.0142643 0.00110301 1e-05 0.0143915 0.00110257 1e-05 0.0145188
0.00110212 1e-05 0.0146471 0.00110165 1e-05 0.0147753 0.00110118 1e-05 0.0149036 0.0011007
1e-05 0.0150318 0.00110022 1e-05 0.0151601 0.00109972 1e-05 0.0152893 0.0010992 1e-05
0.0154186 0.00109868 1e-05 0.0155478 0.00109815 1e-05 0.0156771 0.00109762 1e-05 0.0158063
0.00109707 1e-05 0.0159366 0.00109651 1e-05 0.0160668 0.00109594 1e-05 0.0161971 0.00109536
1e-05 0.0163273 0.00109477 1e-05 0.0164576 0.00109417 1e-05 0.0165889 0.00109356 1e-05
0.0167201 0.00109294 1e-05 0.0168514 0.00109231 1e-05 0.0169827 0.00109167 1e-05 0.0171139
0.00109102 1e-05 0.0172462 0.00109037 1e-05 0.0173785 0.0010897 1e-05 0.0175108 0.00108902
1e-05 0.0176431 0.00108832 1e-05 0.0177754 0.00108763 1e-05 0.0179087 0.00108692 1e-05
0.018042 0.0010862 1e-05 0.0181753 0.00108547 1e-05 0.0183087 0.00108473 1e-05 0.018442
0.00108398 1e-05 0.0185763 0.00108323 1e-05 0.0187107 0.00108246 1e-05 0.018845 0.00108167
1e-05 0.0189794 0.00108087 1e-05 0.0191137 0.00108008 1e-05 0.0192491 0.00107928 1e-05
0.0193845 0.00107846 1e-05 0.0195199 0.00107762 1e-05 0.0196553 0.00107677 1e-05 0.0197907
0.00107592 1e-05 0.0199272 0.00107508 1e-05 0.0200636 0.00107421 1e-05 0.0202001 0.00107332
1e-05 0.0203365 0.00107242 1e-05 0.020473 0.00107152 1e-05 0.0206105 0.00107062 1e-05
0.020748 0.0010697 1e-05 0.0208855 0.00106876 1e-05 0.021023 0.00106781 1e-05 0.0211606
0.00106686 1e-05 0.0212991 0.00106592 1e-05 0.0214377 0.00106495 1e-05 0.0215763 0.00106395
1e-05 0.0217149 0.00106295 1e-05 0.0218535 0.00106196 1e-05 0.0219931 0.00106096 1e-05
0.0221328 0.00105994 1e-05 0.0222724 0.00105889 1e-05 0.0224121 0.00105784 1e-05 0.0225517
0.00105679 1e-05 0.0226925 0.00105575 1e-05 0.0228332 0.00105468 1e-05 0.022974 0.00105358
1e-05 0.0231147 0.00105248 1e-05 0.0232555 0.00105138 1e-05 0.0233973 0.00105028 1e-05
0.0235391 0.00104916 1e-05 0.023681 0.00104801 1e-05 0.0238228 0.00104685 1e-05 0.0239647
0.00104571 1e-05 0.0241076 0.00104456 1e-05 0.0242505 0.00104339 1e-05 0.0243935 0.00104219
1e-05 0.0245364 0.00104098 1e-05 0.0246794 0.00103978 1e-05 0.0248234 0.00103858 1e-05
0.0249675 0.00103735 1e-05 0.0251115 0.0010361 1e-05 0.0252556 0.00103484 1e-05 0.0253996
0.00103359 1e-05 0.0255448 0.00103234 1e-05 0.02569 0.00103106 1e-05 0.0258351 0.00102975
1e-05 0.0259803 0.00102844 1e-05 0.0261255 0.00102714 1e-05 0.0262718 0.00102583 1e-05
0.0264181 0.0010245 1e-05 0.0265644 0.00102315 1e-05 0.0267107 0.00102178 1e-05 0.026857
0.00102043 1e-05 0.0270044 0.00101907 1e-05 0.0271519 0.00101768 1e-05 0.0272993 0.00101627
1e-05 0.0274468 0.00101486 1e-05 0.0275942 0.00101344 1e-05 0.0277428 0.00101203 1e-05
0.0278914 0.00101059 1e-05 0.0280399 0.00100912 1e-05 0.0281885 0.00100766 1e-05 0.0283371
0.00100619 1e-05 0.0284869 0.00100471 1e-05 0.0286366 0.00100321 1e-05 0.0287863 0.0010017
1e-05 0.0289361 0.00100017 1e-05 0.0290858 0.000998643 1e-05 0.0292367 0.000997112 1e-05
0.0293876 0.000995551 1e-05 0.0295385 0.000993978 1e-05 0.0296894 0.000992397 1e-05 0.0298403
0.000990808 1e-05 0.0299924 0.000989216 1e-05 0.0301445 0.000987594 1e-05 0.0302966 0.000985962
1e-05 0.0304486 0.000984322 1e-05 0.0306007 0.000982673 1e-05 0.030754 0.000981017 1e-05
0.0309072 0.000979334 1e-05 0.0310605 0.000977642 1e-05 0.0312138 0.000975941 1e-05 0.031367
0.00097423 1e-05 0.0315215 0.000972509 1e-05 0.0316759 0.000970764 1e-05 0.0318304 0.000969008
1e-05 0.0319848 0.000967243 1e-05 0.0321393 0.000965468 1e-05 0.0322949 0.00096368 1e-05
[...]
POINT_DATA 12030
FIELD attributes 4
age 1 12030 float
-9.99973e-06 -7.99975e-06 -5.99979e-06 -3.99984e-06 -1.99991e-06 0 2.96554e-05 5.93049e-05 8.89483e-05 0.000118586 0.000148217
0.000178568 0.000208911 0.00023924 0.000269556 0.000299858 0.000328932 0.000357998 0.000387053 0.000416095 0.000445126
0.000472986 0.00050084 0.000528688 0.000556528 0.000584362 0.000610556 0.000636746 0.000662933 0.000689117 0.000711229
0.000712564 0.000713898 0.000715233 0.000716568 0.000717902 0.000743533 0.000769162 0.00079479 0.000820417 0.000846042
0.000870642 0.000895243 0.000919844 0.000944446 0.00096905 0.000992671 0.00101629 0.00103992 0.00106355 0.00108718
0.00110986 0.00113256 0.00115525 0.00117795 0.00120065 0.00122245 0.00124425 0.00126605 0.00128786 0.00130967
0.00133062 0.00135157 0.00137252 0.00139348 0.00141444 0.00143457 0.0014547 0.00147484 0.00149498 0.00151513
0.00153448 0.00155382 0.00157318 0.00159253 0.0016119 0.0016305 0.00164909 0.00166769 0.0016863 0.00170491
0.00172279 0.00174066 0.00175854 0.00177642 0.00179431 0.00181149 0.00182867 0.00184585 0.00186304 0.00188023
0.00189675 0.00191326 0.00192977 0.00194629 0.00196281 0.00197869 0.00199456 0.00201043 0.0020263 0.00204218
0.00205279 0.00206339 0.00207399 0.0020846 0.00209521 0.00210591 0.0021166 0.00212729 0.00213799 0.00214869
0.00215948 0.00217026 0.00218105 0.00219184 0.00220263 0.00221351 0.00222439 0.00223527 0.00224615 0.00225703
0.00226801 0.00227898 0.00228996 0.00230093 0.00231191 0.00232299 0.00233406 0.00234513 0.00235621 0.00236729
0.00237846 0.00238963 0.00240081 0.00241199 0.00242317 0.00243445 0.00244572 0.002457 0.00246828 0.00247957
0.00249096 0.00250234 0.00251372 0.00252511 0.00253651 0.00254801 0.0025595 0.002571 0.0025825 0.00259401
0.00260562 0.00261723 0.00262884 0.00264046 0.00265209 0.00266382 0.00267555 0.00268728 0.00269902 0.00271077
0.00272262 0.00273447 0.00274633 0.0027582 0.00277007 0.00277743 0.00278478 0.00279214 0.0027995 0.00280662
0.0028113 0.00281598 0.00282066 0.00282535 0.00283003 0.00284214 0.00285426 0.00286638 0.00287851 0.00289066
0.00290291 0.00291517 0.00292743 0.0029397 0.00295199 0.0029644 0.00297679 0.0029892 0.00300162 0.00301405
0.00302662 0.00303917 0.00305173 0.0030643 0.00307688 0.00308961 0.00310231 0.00311503 0.00312776 0.00314049
0.00315339 0.00316625 0.00317913 0.00319202 0.00320492 0.00321798 0.00323101 0.00324406 0.00325711 0.00327018
0.00328342 0.00329662 0.00330984 0.00332306 0.00333631 0.00334972 0.0033631 0.00337649 0.0033899 0.00340331
0.00341692 0.00343047 0.00344405 0.00345763 0.00347123 0.00348502 0.00349876 0.00351252 0.00352629 0.00354008
0.00355406 0.003568 0.00358195 0.00359591 0.0036099 0.00362408 0.00363821 0.00365235 0.00366651 0.0036807
0.00369507 0.00370941 0.00372375 0.0037381 0.0037525 0.00376707 0.00378161 0.00379615 0.00381071 0.00382531
0.00384009 0.00385484 0.00386959 0.00388435 0.00389916 0.00391414 0.0039291 0.00394406 0.00395903 0.00397405
0.00398924 0.00400442 0.00401958 0.00403477 0.00405 0.00406541 0.0040808 0.00409617 0.00411157 0.00412702
0.00414264 0.00415825 0.00417385 0.00418947 0.00420513 0.00422097 0.0042368 0.00425262 0.00426846 0.00428435
0.0043004 0.00431646 0.0043325 0.00434856 0.00436467 0.00438095 0.00439722 0.00441349 0.00442978 0.00444611
0.00446262 0.00447912 0.00449561 0.00451213 0.00452869 0.00454541 0.00456214 0.00457887 0.00459561 0.00461239
0.00462935 0.0046463 0.00466326 0.00468023 0.00469724 0.00471442 0.00473161 0.00474879 0.004766 0.00478324
0.00480065 0.00481807 0.00483549 0.00485293 0.0048704 0.00488804 0.00490569 0.00492334 0.00494102 0.00495872
0.00497659 0.00499448 0.00501237 0.00503028 0.00504821 0.00506632 0.00508444 0.00510257 0.00512072 0.00513889
0.00515723 0.00517558 0.00519395 0.00521233 0.00523074 0.00524932 0.00526791 0.00528652 0.00530514 0.00532378
0.0053426 0.00536143 0.00538027 0.00539914 0.00541802 0.00543708 0.00545614 0.00547523 0.00549434 0.00551346
0.00553276 0.00555207 0.0055714 0.00559074 0.00561011 0.00562965 0.0056492 0.00566877 0.00568836 0.00570797
0.00572775 0.00574755 0.00576737 0.0057872 0.00580705 0.00582708 0.00584712 0.00586719 0.00588727 0.00590736
0.00591879 0.00593022 0.00594165 0.00595309 0.00596427 0.0059732 0.00598213 0.00599106 0.00599999 0.00600893
0.00602946 0.00605 0.00607056 0.00609114 0.00611173 0.00613251 0.0061533 0.00617411 0.00619494 0.0062158
0.00623682 0.00625787 0.00627894 0.00630002 0.00632113 0.00634241 0.00636371 0.00638504 0.00640638 0.00642774
0.00644928 0.00647084 0.00649242 0.00651402 0.00653565 0.00655744 0.00657926 0.00660111 0.00662297 0.00664485
0.00666691 0.00668899 0.00671109 0.00673322 0.00675536 0.00677768 0.00680003 0.00682239 0.00684478 0.00686719
0.00688977 0.00691239 0.00693502 0.00695768 0.00698035 0.0070032 0.00702608 0.00704899 0.00707192 0.00709485
0.00711798 0.00714113 0.00716431 0.00718751 0.00721072 0.00723411 0.00725754 0.00728099 0.00730446 0.00732795
0.00735162 0.00737533 0.00739906 0.0074228 0.00744657 0.00747052 0.0074945 0.00751851 0.00754254 0.00756658
0.00759082 0.00761509 0.00763939 0.0076637 0.00768802 0.00771255 0.0077371 0.00776169 0.00778628 0.0078109
0.00783571 0.00786056 0.00788543 0.00791032 0.00793523 0.00796034 0.00798548 0.00801065 0.00803583 0.00806103
0.00808644 0.00811189 0.00813735 0.00816283 0.00818834 0.00821405 0.0082398 0.00826556 0.00829135 0.00831716
0.00834318 0.00836924 0.00839531 0.00842141 0.00844753 0.00847387 0.00850023 0.00852662 0.00855303 0.00857946
0.00860465 0.00862986 0.00865509 0.00868034 0.00870406 0.00870585 0.00870764 0.00870943 0.00871122 0.00871301
0.00873999 0.008767 0.00879403 0.00882109 0.00884818 0.00887549 0.00890284 0.00893021 0.0089576 0.00898502
0.00901267 0.00904036 0.00906807 0.0090958 0.00912357 0.00915156 0.0091796 0.00920765 0.00923574 0.00926386
0.0092922 0.00932059 0.009349 0.00937745 0.00940591 0.00943462 0.00946336 0.00949214 0.00952095 0.00954978
0.00957885 0.00960796 0.00963711 0.00966629 0.0096955 0.00972494 0.00975442 0.00978395 0.00981351 0.0098431
0.00987292 0.00990279 0.00993271 0.00996266 0.00999262 0.0100228 0.0100531 0.0100834 0.0101138 0.0101441
0.0101747 0.0102054 0.0102361 0.0102669 0.0102976 0.0103287 0.0103598 0.0103909 0.010422 0.0104532
0.0104847 0.0105162 0.0105477 0.0105793 0.0106109 0.0106428 0.0106748 0.0107067 0.0107387 0.0107708
0.0107845 0.0107982 0.010812 0.0108257 0.0108391 0.0108578 0.0108766 0.0108954 0.0109141 0.010933
0.0109658 0.0109986 0.0110315 0.0110644 0.0110974 0.0111307 0.011164 0.0111974 0.0112308 0.0112642
0.011298 0.0113318 0.0113657 0.0113996 0.0114336 0.0114678 0.0115022 0.0115365 0.011571 0.0116055
0.0116402 0.0116751 0.01171 0.011745 0.01178 0.0118153 0.0118507 0.0118861 0.0119216 0.0119572
0.0119931 0.012029 0.012065 0.0121011 0.0121372 0.0121737 0.0122102 0.0122468 0.0122834 0.0123201
0.0123572 0.0123943 0.0124315 0.0124687 0.012506 0.012509 0.012512 0.012515 0.012518 0.012521
0.0125557 0.0125904 0.0126252 0.0126601 0.012695 0.0127332 0.0127716 0.01281 0.0128485 0.012887
0.0129259 0.0129649 0.0130039 0.0130431 0.0130823 0.0131218 0.0131615 0.0132012 0.013241 0.0132809
0.0133211 0.0133614 0.0134019 0.0134423 0.0134829 0.0135239 0.0135649 0.0136061 0.0136473 0.0136886
0.0137303 0.0137721 0.0138139 0.0138559 0.0138979 0.0139345 0.0139711 0.0140078 0.0140446 0.0140794
0.0140858 0.0140921 0.0140985 0.0141049 0.0141112 0.0141545 0.0141978 0.0142413 0.0142848 0.0143285
0.0143725 0.0144167 0.014461 0.0145053 0.0145498 0.0145947 0.0146397 0.0146848 0.01473 0.0147754
0.0148212 0.014867 0.014913 0.0149591 0.0150054 0.0150521 0.0150989 0.0151458 0.0151928 0.01524
0.0152877 0.0153354 0.0153833 0.0154313 0.0154795 0.0155003 0.0155212 0.0155421 0.015563 0.0155835
0.0156115 0.0156396 0.0156677 0.0156959 0.0157241 0.0157737 0.0158235 0.0158734 0.0159235 0.0159737
0.0160244 0.0160752 0.0161262 0.0161774 0.0162286 0.0162805 0.0163324 0.0163845 0.0164368 0.0164892
0.0165421 0.0165953 0.0166485 0.0167019 0.0167556 0.0168097 0.016864 0.0169185 0.0169732 0.017028
0.0170378 0.0170475 0.0170573 0.0170671 0.0170768 0.0171226 0.0171685 0.0172145 0.0172607 0.017307
0.0173637 0.0174206 0.0174777 0.0175349 0.0175924 0.0176504 0.0177087 0.0177671 0.0178257 0.0178846
0.0179441 0.0180037 0.0180636 0.0181237 0.018184 0.018245 0.0183061 0.0183675 0.0184291 0.0184909
0.0185107 0.0185305 0.0185503 0.0185702 0.0185897 0.0186328 0.0186759 0.0187191 0.0187625 0.018806
0.0188701 0.0189344 0.018999 0.0190638 0.0191289 0.0191947 0.0192607 0.019327 0.0193935 0.0194603
0.0195278 0.0195956 0.0196637 0.019732 0.0198006 0.0198699 0.0199395 0.0200093 0.0200794 0.0201464
0.0201472 0.020148 0.0201488 0.0201496 0.0201504 0.0202217 0.0202934 0.0203653 0.0204374 0.0205099
0.0205833 0.0206569 0.0207308 0.020805 0.0208796 0.0209551 0.0210308 0.0211069 0.0211832 0.02126
0.0213376 0.0214156 0.0214939 0.0215726 0.0216516 0.0216748 0.0216981 0.0217213 0.0217446 0.0217677
0.0218249 0.0218822 0.0219398 0.0219975 0.0220554 0.0221378 0.0222206 0.0223037 0.0223872 0.0224711
0.022556 0.0226413 0.022727 0.022813 0.0228996 0.0229871 0.0230751 0.0231635 0.0232523 0.0233416
0.023368 0.0233944 0.0234209 0.0234474 0.0234736 0.0235381 0.0236028 0.0236678 0.0237329 0.0237983
0.0238916 0.0239853 0.0240794 0.0241741 0.0242692 0.0243655 0.0244623 0.0245596 0.0246573 0.0247556
0.0248551 0.0249551 0.0250556 0.0251566 0.0252582 0.0252636 0.025269 0.0252743 0.0252797 0.0252851
0.0253827 0.0254808 0.0255794 0.0256784 0.025778 0.0258843 0.0259911 0.0260985 0.0262065 0.0263151
0.0264251 0.0265356 0.0266467 0.0267584 0.0268707 0.0269413 0.0270121 0.0270832 0.0271545 0.0272247
0.0272688 0.0273131 0.0273574 0.0274019 0.0274464 0.0275641 0.0276824 0.0278014 0.027921 0.0280412
0.028163 0.0282854 0.0284085 0.0285323 0.0286568 0.0287828 0.0289095 0.029037 0.029165 0.0292939
0.0292986 0.0293033 0.029308 0.0293126 0.0293173 0.0294433 0.0295699 0.0296971 0.0298249 0.0299535
0.0300885 0.0302241 0.0303606 0.0304977 0.0306356 0.0307752 0.0309155 0.0310566 0.0311984 0.031341
0.0313908 0.0314408 0.0314909 0.031541 0.0315911 0.0316864 0.0317821 0.0318782 0.0319745 0.0320712
0.0322204 0.0323704 0.0325213 0.032673 0.0328253 0.0329795 0.0331346 0.0332905 0.0334471 0.0336045
0.0336756 0.0337469 0.0338183 0.0338899 0.0339616 0.0340508 0.0341403 0.0342299 0.0343198 0.03441
0.0345743 0.0347396 0.0349056 0.0350724 0.0352399 0.0354093 0.0355796 0.0357507 0.0359225 0.036095
0.0361775 0.0362601 0.0363429 0.0364259 0.0365096 0.0366025 0.0366956 0.036789 0.0368825 0.0369762
0.0371557 0.037336 0.0375171 0.0376989 0.0378811 0.0380655 0.0382506 0.0384365 0.0386231 0.0388101
0.0389032 0.0389965 0.03909 0.0391837 0.0392788 0.0393753 0.039472 0.0395689 0.0396659 0.039763
0.0399566 0.0401509 0.0403459 0.0405414 0.0407372 0.0409351 0.0411336 0.0413328 0.0415324 0.0417323
0.0418495 0.041967 0.0420846 0.0422024 0.0423235 0.0424081 0.0424928 0.0425776 0.0426624 0.0427473
0.0429529 0.0431591 0.0433656 0.0435726 0.0437795 0.0439885 0.0441978 0.0444077 0.0446178 0.0448277
0.0450028 0.0451781 0.0453535 0.0455292 0.0457143 0.0457495 0.0457846 0.0458198 0.045855 0.0458901
0.0461047 0.0463195 0.0465345 0.0467497 0.0469645 0.0471812 0.0473981 0.0476152 0.0478323 0.048049
0.0482674 0.048486 0.0487046 0.0489232 0.0491414 0.0492238 0.0493063 0.0493888 0.0494713 0.0495565
0.0496933 0.04983 0.0499666 0.0501032 0.0502397 0.0504605 0.0506812 0.0509018 0.0511223 0.0513421
0.0515635 0.0517847 0.0520057 0.0522265 0.0524466 0.0526682 0.0528896 0.0531106 0.0533313 0.0535513
0.0536553 0.0537593 0.0538631 0.0539668 0.0540781 0.0541935 0.0543088 0.054424 0.0545391 0.0546539
0.0548748 0.0550953 0.0553154 0.0555349 0.0557535 0.0559733 0.0561925 0.0564113 0.0566295 0.0568467
0.0570652 0.0572832 0.0575007 0.0577174 0.0579326 0.05814 0.058347 0.0585532 0.0587585 0.0589627
0.0589877 0.0590128 0.0590378 0.0590628 0.0590883 0.0592739 0.0594587 0.0596426 0.0598257 0.0600077
0.0602215 0.0604342 0.0606457 0.0608561 0.061065 0.0612807 0.0614953 0.0617085 0.0619204 0.0621307
0.0622602 0.0623891 0.0625175 0.0626454 0.0627884 0.0628711 0.0629536 0.0630359 0.0631179 0.0631997
0.0634175 0.0636337 0.0638482 0.0640612 0.0642725 0.0644903 0.0647064 0.0649209 0.0651336 0.0653446
0.065562 0.0657775 0.0659913 0.0662033 0.0664135 0.0665677 0.0667208 0.0668731 0.0670243 0.0672003
0.0672556 0.0673108 0.0673658 0.0674206 0.0674754 0.0676906 0.0679039 0.0681152 0.0683246 0.0685322
0.0687458 0.0689574 0.0691671 0.0693748 0.0695806 0.0697923 0.0700021 0.0702098 0.0704155 0.0706193
0.070829 0.0710366 0.0712422 0.0714457 0.0716474 0.0718541 0.0720587 0.0722613 0.0724619 0.072664
0.072675 0.0726859 0.0726969 0.0727079 0.072719 0.0729124 0.073104 0.0732937 0.0734817 0.0736679
0.0738704 0.0740708 0.0742691 0.0744654 0.0746598 0.0748598 0.0750576 0.0752533 0.075447 0.0756389
0.0758362 0.0760314 0.0762246 0.0764157 0.076605 0.0767996 0.076992 0.0771824 0.0773708 0.0775574
0.0777494 0.0779392 0.078127 0.0783128 0.0784967 0.0786857 0.0788725 0.0790574 0.0792403 0.0794215
0.0796078 0.0797921 0.0799743 0.0801543 0.0803324 0.0803945 0.0804565 0.0805182 0.0805797 0.0806496
0.0807664 0.0808825 0.0809977 0.0811122 0.081226 0.0814068 0.0815853 0.0817614 0.0819352 0.0821066
0.0822815 0.0824529 0.0826223 0.0827899 0.0829558 -9.99997e-06 -7.99997e-06 -5.99998e-06 -3.99998e-06 -1.99999e-06
0 2.96566e-05 5.93127e-05 8.89677e-05 0.000118621 0.000148273 0.000178656 0.000209037 0.000239415 0.000269789
0.000300159 0.000329309 0.000358455 0.000387597 0.000416733 0.000445864 0.000473826 0.000501783 0.000529735 0.000557683
0.000585626 0.000612448 0.000639265 0.000666078 0.000692888 0.000719692 0.000745422 0.000771148 0.00079687 0.000822588
0.000848302 0.000872985 0.000897664 0.000922339 0.000947011 0.00097168 0.000995359 0.00101904 0.00104271 0.00106638
0.00109004 0.00111276 0.00113548 0.00115819 0.0011809 0.00120361 0.0012254 0.0012472 0.00126899 0.00129078
0.00131256 0.00133348 0.00135439 0.0013753 0.0013962 0.00141711 0.00143717 0.00145724 0.0014773 0.00149736
0.00151742 0.00153668 0.00155593 0.00157518 0.00159443 0.00161368 0.00163215 0.00165063 0.0016691 0.00168757
0.00170604 0.00172377 0.0017415 0.00175923 0.00177695 0.00179468 0.00181169 0.0018287 0.00184572 0.00186272
0.00187973 0.00189606 0.00191239 0.00192871 0.00194503 0.00196135 0.00197702 0.00199269 0.00200835 0.00202402
0.00203968 0.00205014 0.0020606 0.00207105 0.00208151 0.00209196 0.00210249 0.00211303 0.00212356 0.0021341
0.00214463 0.00215524 0.00216585 0.00217647 0.00218708 0.00219769 0.00220838 0.00221908 0.00222977 0.00224046
0.00225115 0.00226193 0.0022727 0.00228347 0.00229425 0.00230502 0.00231587 0.00232673 0.00233758 0.00234844
0.00235929 0.00237023 0.00238116 0.0023921 0.00240303 0.00241397 0.00242499 0.00243601 0.00244703 0.00245805
0.00246906 0.00248017 0.00249127 0.00250237 0.00251348 0.00252458 0.00253577 0.00254695 0.00255814 0.00256933
0.00258051 0.00259179 0.00260306 0.00261433 0.00262561 0.00263688 0.00264824 0.0026596 0.00267095 0.00268231
0.00269367 0.00270512 0.00271656 0.00272801 0.00273945 0.0027509 0.00276243 0.00277397 0.0027855 0.00279703
0.00280857 0.00282019 0.00283181 0.00284343 0.00285506 0.00286668 0.00287839 0.0028901 0.00290181 0.00291352
0.00292523 0.00293704 0.00294884 0.00296064 0.00297244 0.00298424 0.00299613 0.00300802 0.00301992 0.00303181
0.0030437 0.00305568 0.00306767 0.00307965 0.00309163 0.00310362 0.00311569 0.00312777 0.00313985 0.00315192
0.003164 0.00317617 0.00318833 0.0032005 0.00321267 0.00322484 0.0032371 0.00324937 0.00326163 0.00327389
0.00328615 0.00329851 0.00331087 0.00332322 0.00333558 0.00334794 0.00336039 0.00337284 0.00338529 0.00339774
0.0034102 0.00342274 0.00343529 0.00344784 0.00346039 0.00347293 0.00348558 0.00349822 0.00351087 0.00352351
0.00353616 0.0035489 0.00356164 0.00357438 0.00358712 0.00359986 0.0036127 0.00362554 0.00363838 0.00365122
0.00366406 0.003677 0.00368994 0.00370288 0.00371582 0.00372875 0.00373584 0.00374292 0.00375 0.00375708
0.00376415 0.00377011 0.00377607 0.00378202 0.00378798 0.00379394 0.00380708 0.00382022 0.00383336 0.00384649
0.00385963 0.00387287 0.00388611 0.00389935 0.00391259 0.00392583 0.00393917 0.00395251 0.00396585 0.00397919
0.00399253 0.00400598 0.00401942 0.00403286 0.00404631 0.00405975 0.0040733 0.00408684 0.00410039 0.00411394
0.00412748 0.00414114 0.00415479 0.00416844 0.00418209 0.00419574 0.00420949 0.00422325 0.00423701 0.00425076
0.00426452 0.00427838 0.00429224 0.0043061 0.00431996 0.00433383 0.0043478 0.00436176 0.00437573 0.0043897
0.00440367 0.00441774 0.00443182 0.0044459 0.00445997 0.00447405 0.00448823 0.00450242 0.0045166 0.00453078
0.00454497 0.00455926 0.00457356 0.00458785 0.00460214 0.00461644 0.00463084 0.00464525 0.00465965 0.00467405
0.00468845 0.00470297 0.00471749 0.004732 0.00474651 0.00476103 0.00477566 0.00479029 0.00480491 0.00481954
0.00483417 0.00484891 0.00486365 0.00487839 0.00489313 0.00490787 0.00492273 0.00493758 0.00495243 0.00496729
0.00498214 0.00499711 0.00501209 0.00502705 0.00504202 0.00505699 0.00507208 0.00508717 0.00510225 0.00511734
0.00513242 0.00514763 0.00516284 0.00517804 0.00519324 0.00520845 0.00522377 0.00523909 0.00525441 0.00526974
0.00528506 0.00530051 0.00531595 0.00533139 0.00534683 0.00536228 0.00537784 0.00539341 0.00540897 0.00542453
0.0054401 0.00545579 0.00547147 0.00548716 0.00550284 0.00551853 0.00553434 0.00555015 0.00556596 0.00558178
0.00559759 0.00561352 0.00562946 0.0056454 0.00566133 0.00567727 0.00569334 0.0057094 0.00572546 0.00574152
0.00575759 0.00577378 0.00578997 0.00580617 0.00582236 0.00583855 0.00584898 0.00585941 0.00586983 0.00588026
0.00589054 0.00589647 0.00590239 0.00590832 0.00591424 0.00592017 0.00593662 0.00595307 0.00596953 0.00598598
0.00600244 0.00601903 0.00603562 0.00605221 0.00606879 0.00608539 0.00610212 0.00611884 0.00613556 0.00615229
0.00616901 0.00618589 0.00620275 0.00621961 0.00623647 0.00625334 0.00627035 0.00628735 0.00630435 0.00632135
0.00633836 0.00635552 0.00637267 0.00638981 0.00640695 0.00642411 0.00644142 0.00645871 0.006476 0.00649328
0.00651059 0.00652805 0.00654549 0.00656292 0.00658036 0.00659781 0.00661543 0.00663303 0.00665061 0.00666819
0.0066858 0.00670357 0.00672132 0.00673906 0.00675679 0.00677456 0.00679249 0.0068104 0.00682829 0.00684619
0.00686412 0.00688221 0.00690029 0.00691834 0.0069364 0.00695449 0.00697275 0.00699099 0.00700921 0.00702743
0.00704568 0.00706412 0.00708252 0.00710091 0.0071193 0.00713773 0.00715633 0.00717491 0.00719347 0.00721204
0.00723064 0.00724942 0.00726817 0.00728692 0.00730567 0.00732444 0.0073434 0.00736233 0.00738126 0.0074002
0.00741915 0.00743829 0.00745741 0.00747653 0.00749566 0.00751479 0.00753412 0.00755342 0.00757274 0.00759206
0.00761139 0.00763091 0.00765041 0.00766992 0.00768944 0.00770897 0.00772868 0.00774838 0.00776809 0.00778782
0.00780755 0.00780964 0.00781173 0.00781383 0.00781592 0.007818 0.00783581 0.00785364 0.00787147 0.00788931
0.00790715 0.00792727 0.00794739 0.00796752 0.00798766 0.00800782 0.00802816 0.00804849 0.00806884 0.0080892
0.00810957 0.00813014 0.00815069 0.00817126 0.00819184 0.00821243 0.00823324 0.00825403 0.00827482 0.00829562
0.00831645 0.0083375 0.00835853 0.00837954 0.00840057 0.00842165 0.00844294 0.00846421 0.00848546 0.00850673
0.00852805 0.00854959 0.00857111 0.00859261 0.00861412 0.0086357 0.00865749 0.00867927 0.00870102 0.00872279
0.00874462 0.00876667 0.00878871 0.00881072 0.00883276 0.00885485 0.00887716 0.00889946 0.00892176 0.00894407
0.00896643 0.00898901 0.00901158 0.00903416 0.00905676 0.00907939 0.00910225 0.00912509 0.00914796 0.00917085
0.00919376 0.0092169 0.00924004 0.00926321 0.00928639 0.0093096 0.00932889 0.00934817 0.00936748 0.0093868
0.0094054 0.00940971 0.00941402 0.00941833 0.00942264 0.00942696 0.00945068 0.00947443 0.0094982 0.009522
0.00954583 0.00956988 0.00959394 0.00961803 0.00964215 0.0096663 0.00969068 0.00971506 0.00973948 0.00976392
0.00978839 0.00981311 0.00983784 0.00986258 0.00988735 0.00991217 0.00993724 0.00996231 0.00998739 0.0100125
0.0100377 0.0100631 0.0100885 0.0101139 0.0101394 0.0101649 0.0101907 0.0102165 0.0102423 0.0102681