/*--------------------------------*- C++ -*----------------------------------*\
  =========                 |
  \\      /  F ield         | OpenFOAM: The Open Source CFD Toolbox
   \\    /   O peration     | Website:  https://openfoam.org
    \\  /    A nd           | Version:  12
     \\/     M anipulation  |
\*---------------------------------------------------------------------------*/
FoamFile
{
    format      ascii;
    class       volScalarField;
    location    "8.5";
    object      epsilon;
}
// * * * * * * * * * * * * * * * * * * * * * * * * * * * * * * * * * * * * * //

dimensions      [0 2 -3 0 0 0 0];

internalField   nonuniform List<scalar> 
1600
(
2.93608e-05
9.80712e-05
0.000188748
0.000187448
0.00017107
0.000175263
0.000227067
0.00038745
0.000583092
0.000849447
0.00130021
0.00161313
0.00177365
0.0019737
0.002285
0.00268161
0.0030463
0.00346796
0.00387082
0.00433659
0.00480905
0.00535371
0.00593972
0.00662675
0.00742458
0.00812481
0.00884497
0.00945394
0.00998395
0.01027
0.0103836
0.0101763
0.00936153
0.00797456
0.00601607
0.0035893
0.00175481
0.000740779
0.000237219
4.94417e-05
0.00014181
0.000177256
0.000215087
0.00020464
0.000196953
0.000235541
0.000414742
0.000894329
0.00160407
0.0026591
0.00461469
0.0055104
0.00558161
0.00521675
0.00488253
0.00473246
0.0046013
0.00456052
0.00455317
0.00465324
0.00478852
0.00500118
0.00522978
0.00552267
0.00587659
0.00630958
0.00679336
0.0073513
0.00790364
0.00837137
0.0085889
0.00862833
0.00806196
0.00700021
0.0052261
0.00304111
0.00128255
0.000562061
0.000204044
8.28561e-05
0.000428435
0.000451373
0.000453062
0.000428442
0.000481979
0.000802699
0.00175735
0.00361097
0.00578142
0.00666362
0.00646777
0.00551077
0.00504854
0.0044397
0.00404277
0.003731
0.00348918
0.00332984
0.00323413
0.00319272
0.00318073
0.00321824
0.00332434
0.00347236
0.00366261
0.00389505
0.00417463
0.00451114
0.00490841
0.00539102
0.00593744
0.00645309
0.00669179
0.00664466
0.00579596
0.00394788
0.0012777
0.000353102
0.000127561
6.78829e-05
0.000980258
0.000877533
0.000862093
0.000918263
0.00133968
0.00261141
0.00493886
0.00657238
0.00694813
0.00629433
0.00539296
0.0042237
0.00354758
0.00303462
0.00277575
0.002531
0.00240788
0.00232736
0.00229368
0.00228528
0.00231205
0.00236903
0.00244748
0.00255019
0.002675
0.00282753
0.00301149
0.00323352
0.00349927
0.00381653
0.0041893
0.00463448
0.00522784
0.00583121
0.00607056
0.00561324
0.00289038
0.000496281
0.000103535
4.70181e-05
0.00184132
0.00148729
0.00156476
0.00196134
0.00312325
0.00517031
0.00649269
0.00674789
0.00617256
0.00465129
0.00350114
0.00288509
0.00246279
0.00219469
0.00203896
0.00193761
0.00189456
0.00187989
0.00188281
0.00191755
0.00195962
0.0020169
0.00208351
0.00216577
0.00226414
0.00238545
0.00253523
0.00272047
0.00294395
0.00320894
0.00351769
0.00387077
0.00428779
0.00484019
0.0056651
0.00604309
0.00541206
0.00155024
0.000194539
5.42507e-05
0.00306629
0.00234977
0.00263861
0.00344644
0.00498749
0.00614937
0.00642402
0.0059486
0.00423956
0.00305553
0.00246744
0.00209834
0.001865
0.00173939
0.00167736
0.00165133
0.00164559
0.00165774
0.00168302
0.00171678
0.00175681
0.00180666
0.00186733
0.00194304
0.00203667
0.00215372
0.00229883
0.00247736
0.00269381
0.00295089
0.0032487
0.00359155
0.00396156
0.00437727
0.00490927
0.00563389
0.00593999
0.00416002
0.000593633
0.000101571
0.00460038
0.0034537
0.00391849
0.00485921
0.00579933
0.00607779
0.00573574
0.00413764
0.00282349
0.00220103
0.00187064
0.00165642
0.00154959
0.00149753
0.00147453
0.00146616
0.00146451
0.00147058
0.00148124
0.00149717
0.00152061
0.0015558
0.00160544
0.00167433
0.00176685
0.00188894
0.00204628
0.00224491
0.00248943
0.00278103
0.00311455
0.00347722
0.00386262
0.00426587
0.00467395
0.00518407
0.00557315
0.00548021
0.00151013
0.000229246
0.00624022
0.00465867
0.00508825
0.00564014
0.00584436
0.00558589
0.00425438
0.00277525
0.00206315
0.00171829
0.00152336
0.00141235
0.00135872
0.00132833
0.00130661
0.00128754
0.00126943
0.00125381
0.00124356
0.00123959
0.00124207
0.00126217
0.00129836
0.00135644
0.00144112
0.00155872
0.00171705
0.0019251
0.00219223
0.0025251
0.00292225
0.00336666
0.00382299
0.00426026
0.0046505
0.00506361
0.00547541
0.00562332
0.00331069
0.000574422
0.00764093
0.00575763
0.0059328
0.00598937
0.00558575
0.00452531
0.00294684
0.00204603
0.00163342
0.00143074
0.00131287
0.00124871
0.00120922
0.00117302
0.00113641
0.001098
0.00106007
0.00102553
0.000997292
0.000981016
0.000974887
0.000979067
0.00100624
0.00105235
0.00112508
0.0012296
0.00137506
0.00157289
0.00183767
0.00218513
0.00262686
0.00315878
0.0037445
0.00430676
0.00479964
0.00510563
0.00547426
0.00567564
0.0050243
0.00155636
0.00866701
0.00656285
0.00643818
0.00592607
0.00495663
0.00340458
0.00218071
0.0016291
0.00137275
0.00124511
0.00116554
0.00111508
0.00106839
0.00101759
0.000964266
0.000910207
0.000859408
0.0008149
0.000779286
0.000756455
0.000746284
0.000744435
0.000762796
0.000799358
0.000858748
0.000946604
0.00107147
0.00124568
0.00148652
0.00181666
0.00226176
0.00284118
0.00354635
0.0043087
0.00498529
0.00539775
0.00563747
0.0057937
0.00560149
0.00276757
0.00940296
0.00708313
0.00665487
0.00568204
0.00413241
0.0025516
0.00173614
0.00137225
0.00120064
0.00111052
0.00104498
0.000991058
0.000931505
0.000867607
0.000802983
0.000741079
0.000685707
0.000639055
0.000602662
0.000578388
0.000566927
0.000563751
0.000575442
0.000604442
0.000651926
0.000723674
0.000827084
0.000973916
0.00118167
0.00147584
0.0018908
0.00246559
0.00322632
0.0041441
0.00507193
0.00568952
0.00596342
0.00607616
0.00595914
0.00393293
0.00979763
0.00730889
0.0065929
0.0051937
0.00335804
0.00203802
0.00145817
0.00119957
0.00107553
0.00100131
0.000936909
0.000873953
0.00080369
0.000731896
0.00066261
0.000599479
0.000545172
0.000500783
0.000466797
0.000443778
0.000432646
0.000429144
0.000436634
0.000459506
0.000497358
0.000555329
0.00063973
0.000760979
0.000935379
0.00118846
0.00155873
0.00209922
0.00286836
0.0038937
0.00509242
0.00600036
0.00633487
0.00641825
0.00630547
0.00487178
0.00978353
0.00728844
0.00640669
0.00465729
0.00273432
0.00170874
0.00127082
0.00107373
0.00097658
0.000906676
0.000838279
0.000766932
0.000690431
0.000615866
0.000546899
0.000486477
0.00043599
0.000395611
0.000365082
0.00034419
0.000333922
0.000330473
0.000335326
0.000353401
0.000383816
0.000430793
0.000499659
0.000599236
0.00074379
0.000956749
0.00127626
0.00176137
0.00249238
0.00354779
0.00493197
0.00627843
0.0068153
0.00689736
0.00659926
0.00575123
0.00965957
0.00717305
0.00606401
0.00411537
0.00230841
0.00148505
0.00113602
0.000977044
0.000894016
0.00082322
0.000750071
0.000673178
0.000594506
0.000520774
0.000454934
0.000398918
0.000353088
0.000316984
0.000289907
0.000271215
0.000261909
0.000258657
0.000261855
0.000276269
0.000301065
0.000339611
0.000396422
0.000478907
0.00059927
0.00077823
0.00105151
0.00147949
0.0021559
0.0031965
0.00466367
0.0064056
0.00731779
0.00745431
0.00704809
0.00656345
0.00936442
0.00691935
0.00566245
0.00364328
0.00201849
0.00132549
0.00103413
0.000900365
0.000823609
0.000750448
0.000673633
0.000594123
0.000516073
0.000445176
0.000383598
0.000332317
0.000290995
0.000258784
0.000234756
0.000218109
0.000209662
0.000206645
0.000208805
0.000220425
0.000240944
0.000273035
0.000320556
0.000389734
0.000490846
0.000641614
0.000873799
0.00124507
0.00185592
0.00285821
0.00440303
0.00643431
0.00783501
0.00808406
0.00753958
0.00735703
0.008859
0.00661206
0.00525487
0.00326369
0.0018123
0.00120821
0.000955401
0.000838202
0.000763731
0.00068843
0.000609494
0.000529581
0.000453711
0.000386451
0.000329261
0.000282372
0.00024501
0.000216112
0.000194647
0.000179768
0.000172045
0.000169252
0.000170769
0.000180244
0.000197464
0.000224597
0.000265
0.000324031
0.000410465
0.000539431
0.000738537
0.00106021
0.00160323
0.00253698
0.00408283
0.00634034
0.00831703
0.00879489
0.00813419
0.00812714
0.00828091
0.0062758
0.00486715
0.00296893
0.0016632
0.00112048
0.000893849
0.000787437
0.000713558
0.00063697
0.000557305
0.000478382
0.000405349
0.000341798
0.000288614
0.000245505
0.000211447
0.000185266
0.000165891
0.000152463
0.000145319
0.000142715
0.000143837
0.000151657
0.000166288
0.000189542
0.000224384
0.00027553
0.000350605
0.00046262
0.000635397
0.000915604
0.00139719
0.00225901
0.00377608
0.00616582
0.00874521
0.0095737
0.00876748
0.00889222
0.00759179
0.00595803
0.00452293
0.0027469
0.00155607
0.00105547
0.000845974
0.000746284
0.000672495
0.000595505
0.000516152
0.000438979
0.000368888
0.000308717
0.000258939
0.000218931
0.000187529
0.000163508
0.000145788
0.00013351
0.000126787
0.000124308
0.000125188
0.000131736
0.000144327
0.000164529
0.000194998
0.000239988
0.000306305
0.000405382
0.000557858
0.000804544
0.0012314
0.00201707
0.00347805
0.00595129
0.00908514
0.0103936
0.00953149
0.00965083
0.00691939
0.00564885
0.00422508
0.00258562
0.00148284
0.00100739
0.000809012
0.000713265
0.00063965
0.000563148
0.000484901
0.000409767
0.000342389
0.000285109
0.000238107
0.000200552
0.000171209
0.000148848
0.000132394
0.000120994
0.000114529
0.000112088
0.000112792
0.000118369
0.000129362
0.000147168
0.000174172
0.00021429
0.000273732
0.000362825
0.000499783
0.000720363
0.001102
0.00181748
0.00321087
0.00573509
0.00933691
0.0112451
0.0103675
0.010404
0.00613037
0.00537313
0.00398262
0.00247382
0.00143572
0.000976031
0.000781763
0.000687621
0.000614457
0.000539018
0.000462278
0.000389341
0.00032445
0.000269531
0.000224633
0.00018887
0.00016102
0.000139869
0.000124341
0.000113584
0.000107245
0.000104749
0.000105407
0.000110292
0.000119982
0.000135787
0.000160063
0.000196337
0.00025035
0.000331704
0.000456861
0.000657362
0.00100195
0.00165304
0.00297008
0.0055266
0.00949473
0.0121285
0.0113212
0.0111559
0.0054874
0.00513984
0.00378821
0.00240251
0.00141805
0.00095512
0.000762739
0.000668171
0.000595514
0.000521886
0.000447393
0.000376487
0.000313399
0.000260197
0.000216893
0.000182558
0.000155951
0.000135716
0.000120807
0.000110425
0.000104078
0.000101406
0.000102207
0.000106631
0.000115488
0.00012998
0.000152055
0.000184978
0.000234395
0.00030972
0.000425952
0.00061151
0.000927267
0.00152292
0.00275995
0.00530638
0.00960749
0.0130254
0.0123833
0.0118981
0.00493834
0.00492511
0.00366475
0.00236677
0.00142555
0.000956721
0.000751538
0.000654834
0.000582944
0.000511275
0.000438528
0.000370028
0.000309501
0.0002582
0.000216186
0.00018261
0.000156249
0.000136139
0.000121278
0.000110866
0.000104354
0.000101396
0.000101955
0.000105807
0.000114108
0.000127886
0.000148659
0.000179549
0.000225792
0.000295922
0.000404901
0.000579567
0.000873439
0.00142262
0.00258229
0.00509457
0.00966165
0.0139355
0.0135678
0.0126372
0.00445058
0.0047451
0.00358756
0.00237301
0.00145035
0.000967704
0.000752639
0.000646671
0.000574262
0.000505217
0.000436647
0.000370645
0.000311024
0.000260253
0.000218554
0.000185179
0.000159027
0.000139017
0.000124186
0.000113762
0.000107212
0.000104297
0.000104766
0.000108036
0.000115511
0.000128286
0.00014805
0.000177831
0.000222405
0.000289418
0.000394024
0.000560958
0.000838308
0.00134961
0.0024371
0.00489494
0.00968386
0.0148767
0.0148552
0.0133603
0.00400606
0.00460444
0.00357212
0.00240125
0.00150263
0.000993945
0.000759889
0.000647309
0.000572441
0.000505508
0.000438518
0.000374172
0.000315925
0.000265988
0.000224774
0.000191636
0.000165607
0.000145593
0.000130672
0.000120105
0.00011337
0.00011026
0.000110682
0.000113654
0.000120679
0.000133014
0.000151882
0.000179999
0.000222198
0.000287464
0.000389888
0.000552657
0.000821167
0.00130174
0.00232546
0.00471286
0.00968648
0.0158246
0.0162592
0.0140721
0.0035889
0.00449559
0.0035884
0.00246557
0.0015826
0.00104468
0.00077786
0.000652259
0.000574356
0.000508071
0.000443606
0.000382063
0.000325939
0.000277066
0.000236153
0.000202926
0.000176602
0.000156223
0.000140921
0.000129984
0.000122895
0.000119483
0.000119872
0.000122682
0.000129444
0.000141597
0.000160162
0.000187745
0.000228854
0.000291472
0.000390138
0.000550719
0.0008153
0.00127841
0.00224489
0.00455699
0.00966913
0.016766
0.0177868
0.014759
0.00319325
0.00441881
0.00363464
0.00256616
0.00169013
0.0011194
0.00081421
0.000665181
0.000580337
0.000514184
0.000452907
0.000394144
0.000339945
0.000292133
0.000251577
0.00021824
0.000191548
0.000170704
0.000154924
0.000143548
0.000136071
0.000132334
0.000132712
0.000135463
0.000142128
0.000154304
0.000172855
0.00020029
0.000241013
0.000303114
0.000401251
0.000560167
0.00082008
0.0012709
0.00219701
0.00442926
0.00964996
0.0176934
0.0194383
0.0154232
0.00280603
0.0043542
0.00371751
0.00270118
0.00183156
0.00122327
0.000872198
0.000691793
0.000593188
0.000524784
0.000465227
0.000409201
0.000357228
0.000310789
0.000270833
0.000237543
0.000210567
0.000189287
0.000173037
0.000161231
0.000153394
0.000149364
0.000149761
0.000152546
0.000159277
0.000171674
0.000190494
0.000218204
0.00025915
0.000321397
0.000419778
0.000580212
0.000842575
0.00128161
0.00217682
0.00432804
0.00964
0.0186262
0.0211947
0.0160515
0.00242703
0.00429951
0.00382911
0.00285296
0.00200115
0.0013606
0.000958869
0.000738159
0.000617799
0.000541386
0.000481091
0.000427008
0.000377295
0.000332563
0.000293593
0.000260692
0.0002337
0.000212182
0.000195607
0.000183492
0.000175402
0.000171205
0.000171672
0.000174594
0.000181567
0.000194372
0.000213723
0.000242104
0.000283895
0.000347308
0.000447391
0.000610781
0.000877717
0.0013161
0.00217415
0.0042504
0.00959269
0.0195501
0.023032
0.0166477
0.00204117
0.00420141
0.0039124
0.00305212
0.00220128
0.00153288
0.00107928
0.000810227
0.000658808
0.000567449
0.0005023
0.000448212
0.000400145
0.000357181
0.000319545
0.000287457
0.000260857
0.000239459
0.000222856
0.000210688
0.000202543
0.00019844
0.000199055
0.000202241
0.000209661
0.000223067
0.000243208
0.000272669
0.000315948
0.000381569
0.000484787
0.000653135
0.000927634
0.00137223
0.00220661
0.00421336
0.00954454
0.020443
0.024897
0.0171999
0.0016914
0.00407479
0.00395418
0.00327064
0.00242947
0.00174445
0.00124328
0.000919633
0.000726367
0.000610179
0.000533257
0.000475108
0.000426705
0.000384804
0.000348491
0.000317537
0.000291775
0.000270961
0.000254753
0.00024293
0.000235012
0.000231414
0.000232287
0.000235906
0.000244035
0.000258265
0.000279489
0.00031051
0.000356021
0.000425071
0.000533059
0.000708494
0.000992876
0.00144971
0.00226613
0.00420154
0.00949376
0.0212435
0.0267066
0.0177174
0.00139698
0.00381197
0.00399237
0.00348146
0.0026637
0.00198246
0.0014504
0.00107549
0.000833054
0.00068138
0.000583228
0.00051421
0.000461176
0.000417926
0.000381773
0.000351551
0.000326651
0.000306676
0.000291195
0.000280121
0.000272706
0.00027011
0.000271381
0.00027565
0.000284822
0.000300183
0.000322895
0.000356145
0.000404849
0.000478873
0.000593542
0.000778736
0.00107556
0.00155177
0.0023602
0.00423266
0.00947092
0.0219644
0.0283838
0.0181964
0.0011331
0.00327487
0.00405551
0.0036857
0.00291243
0.00224479
0.00170168
0.00128794
0.00099512
0.000798217
0.0006671
0.000577089
0.00051196
0.000462357
0.000423248
0.000391962
0.000366983
0.000347468
0.0003326
0.000322449
0.000315601
0.000314444
0.000316249
0.0003214
0.000332012
0.000348992
0.00037384
0.000410383
0.000463655
0.000544821
0.000668611
0.000867324
0.00117993
0.00168434
0.00249819
0.00433354
0.00947154
0.0225857
0.0298465
0.0186598
0.000892044
0.00246972
0.00398684
0.00377025
0.00314915
0.00251272
0.00198599
0.00155912
0.00122936
0.000986319
0.000812565
0.000689165
0.000600399
0.000535121
0.000486079
0.000448753
0.000420225
0.000398874
0.000383038
0.00037292
0.000365991
0.000366012
0.000368391
0.000374586
0.00038701
0.00040641
0.00043448
0.000476124
0.000536124
0.000627873
0.000764456
0.000982999
0.00131744
0.00186443
0.00270562
0.00454462
0.00962019
0.0232079
0.0309937
0.0191291
0.00076892
0.0017332
0.00370328
0.0037057
0.00338502
0.00279567
0.00230397
0.00188891
0.0015437
0.00126579
0.00104895
0.000883627
0.000759186
0.000665947
0.000596101
0.000543898
0.000504919
0.000476537
0.000455837
0.000442859
0.000433971
0.000433521
0.00043619
0.000443353
0.00045781
0.000480993
0.000514202
0.000564274
0.000634915
0.000743725
0.000900147
0.00115126
0.00152118
0.00213904
0.00305013
0.00496852
0.0100294
0.0239519
0.031698
0.0194287
0.000797178
0.00134502
0.00304141
0.00350539
0.00339536
0.0030743
0.00266519
0.00229859
0.00196846
0.00167659
0.00142704
0.00121997
0.00105229
0.000919134
0.00081485
0.000733991
0.000671893
0.000625261
0.000591134
0.000568254
0.00055287
0.00054717
0.000549376
0.000557043
0.000573471
0.000603227
0.000645966
0.000712029
0.000802636
0.000943629
0.00113724
0.001451
0.00189078
0.00264346
0.00371588
0.0058782
0.0110718
0.0250979
0.0319835
0.0195348
0.00113633
0.00119592
0.00229142
0.00304027
0.00335092
0.00328288
0.00307976
0.00279671
0.00251322
0.00223756
0.00197671
0.0017396
0.00153149
0.0013534
0.00120568
0.0010883
0.000995689
0.000923786
0.000868923
0.000829826
0.000803845
0.000791528
0.000794245
0.000805571
0.000830431
0.000877118
0.000944694
0.00104946
0.00118913
0.00140466
0.00168653
0.00214286
0.00274617
0.00379026
0.00522398
0.00792333
0.0134039
0.0269869
0.0319715
0.0194087
0.00184484
0.00139574
0.00213458
0.00299519
0.00352162
0.00376294
0.00376817
0.00365988
0.00343787
0.00317921
0.00291236
0.00265056
0.00240737
0.00218955
0.00200037
0.00183957
0.00170957
0.00160698
0.00153233
0.00148265
0.00145575
0.00145953
0.00147959
0.00152579
0.00160535
0.0017233
0.00187729
0.00210124
0.00239488
0.00281677
0.00335669
0.00418364
0.00522114
0.00694725
0.00909054
0.0130887
0.0186301
0.0302864
0.0318102
0.0187986
0.00306547
0.00213407
0.00298273
0.00403422
0.00484727
0.00543114
0.00569323
0.00572533
0.00561203
0.00537047
0.00508762
0.00479271
0.00451322
0.00426162
0.00405088
0.00388142
0.00376277
0.00368192
0.00367155
0.00369498
0.00376117
0.00389481
0.00409071
0.004342
0.0046834
0.00509616
0.0056408
0.00628779
0.00709487
0.00812986
0.00951698
0.0113205
0.0135745
0.016702
0.0203396
0.0260695
0.0310966
0.0362482
0.0326882
0.0176713
0.00508375
0.0049523
0.00833612
0.0111358
0.012704
0.0135521
0.01384
0.0137837
0.0135798
0.0132138
0.0128249
0.0124551
0.0121554
0.0119359
0.0118243
0.0118427
0.0119372
0.0121453
0.0125002
0.0129703
0.0135817
0.014298
0.0151993
0.0162105
0.0174858
0.0188557
0.0206346
0.0224422
0.0249245
0.0272552
0.0305071
0.0333895
0.0376217
0.0409909
0.0460304
0.0487899
0.0477552
0.0422716
0.0330819
0.0153984
0.00344959
0.00530221
0.00686823
0.00846982
0.0099401
0.0112634
0.0123968
0.0133116
0.0139598
0.0143648
0.0146178
0.0146942
0.014665
0.0145799
0.0144226
0.0142227
0.0140047
0.0137937
0.0135723
0.0133772
0.0131853
0.0130324
0.0128912
0.0127954
0.0127189
0.012693
0.0127063
0.0127474
0.0128525
0.0129594
0.0131929
0.0133838
0.013834
0.0141812
0.0149634
0.0154692
0.016321
0.016398
0.0158429
0.0132331
)
;

boundaryField
{
    movingWall
    {
        type            epsilonWallFunction;
        value           nonuniform List<scalar> 
40
(
0.00344959
0.00530221
0.00686823
0.00846982
0.0099401
0.0112634
0.0123968
0.0133116
0.0139598
0.0143648
0.0146178
0.0146942
0.014665
0.0145799
0.0144226
0.0142227
0.0140047
0.0137937
0.0135723
0.0133772
0.0131853
0.0130324
0.0128912
0.0127954
0.0127189
0.012693
0.0127063
0.0127474
0.0128525
0.0129594
0.0131929
0.0133838
0.013834
0.0141812
0.0149634
0.0154692
0.016321
0.016398
0.0158429
0.0132331
)
;
    }
    fixedWalls
    {
        type            epsilonWallFunction;
        value           nonuniform List<scalar> 
120
(
2.93608e-05
0.00014181
0.000428435
0.000980258
0.00184132
0.00306629
0.00460038
0.00624022
0.00764093
0.00866701
0.00940296
0.00979763
0.00978353
0.00965957
0.00936442
0.008859
0.00828091
0.00759179
0.00691939
0.00613037
0.0054874
0.00493834
0.00445058
0.00400606
0.0035889
0.00319325
0.00280603
0.00242703
0.00204117
0.0016914
0.00139698
0.0011331
0.000892044
0.00076892
0.000797178
0.00113633
0.00184484
0.00306547
0.00508375
0.00344959
4.94417e-05
8.28561e-05
6.78829e-05
4.70181e-05
5.42507e-05
0.000101571
0.000229246
0.000574422
0.00155636
0.00276757
0.00393293
0.00487178
0.00575123
0.00656345
0.00735703
0.00812714
0.00889222
0.00965083
0.010404
0.0111559
0.0118981
0.0126372
0.0133603
0.0140721
0.014759
0.0154232
0.0160515
0.0166477
0.0171999
0.0177174
0.0181964
0.0186598
0.0191291
0.0194287
0.0195348
0.0194087
0.0187986
0.0176713
0.0153984
0.0132331
2.93608e-05
9.80712e-05
0.000188748
0.000187448
0.00017107
0.000175263
0.000227067
0.00038745
0.000583092
0.000849447
0.00130021
0.00161313
0.00177365
0.0019737
0.002285
0.00268161
0.0030463
0.00346796
0.00387082
0.00433659
0.00480905
0.00535371
0.00593972
0.00662675
0.00742458
0.00812481
0.00884497
0.00945394
0.00998395
0.01027
0.0103836
0.0101763
0.00936153
0.00797456
0.00601607
0.0035893
0.00175481
0.000740779
0.000237219
4.94417e-05
)
;
    }
    frontAndBack
    {
        type            empty;
    }
}


// ************************************************************************* //
