/*--------------------------------*- C++ -*----------------------------------*\
  =========                 |
  \\      /  F ield         | OpenFOAM: The Open Source CFD Toolbox
   \\    /   O peration     | Website:  https://openfoam.org
    \\  /    A nd           | Version:  12
     \\/     M anipulation  |
\*---------------------------------------------------------------------------*/
FoamFile
{
    format      ascii;
    class       volScalarField;
    location    "8.5";
    object      k;
}
// * * * * * * * * * * * * * * * * * * * * * * * * * * * * * * * * * * * * * //

dimensions      [0 2 -2 0 0 0 0];

internalField   nonuniform List<scalar> 
1600
(
2.29474e-06
7.66424e-06
1.475e-05
1.4648e-05
1.33678e-05
1.36952e-05
1.77429e-05
3.02754e-05
4.55639e-05
6.6382e-05
0.000101604
0.000126052
0.000138595
0.000154231
0.00017856
0.000209552
0.000238049
0.000270996
0.000302474
0.000338868
0.000375783
0.00041834
0.000464128
0.000517809
0.000580148
0.000634854
0.000691121
0.000738697
0.000780105
0.000802452
0.000811329
0.000795127
0.000731471
0.000623106
0.000470084
0.000280473
0.00013713
5.7891e-05
1.85392e-05
3.86414e-06
1.10831e-05
4.92474e-05
9.35766e-05
9.9489e-05
9.65412e-05
0.000103393
0.000146709
0.000251169
0.000351407
0.000484075
0.000691676
0.000791342
0.000814073
0.0008169
0.000817738
0.000855934
0.00087472
0.000919559
0.00095184
0.0010027
0.00104933
0.00110731
0.00116318
0.00122132
0.00127427
0.00134235
0.0014071
0.00147745
0.00153611
0.00157071
0.00158294
0.00154747
0.00143966
0.00124501
0.000983227
0.000608282
0.000275711
0.000115176
4.04827e-05
6.47538e-06
3.34835e-05
0.000129561
0.000201642
0.000214516
0.000233616
0.000307996
0.00051144
0.000828551
0.00107705
0.00116284
0.00109759
0.000986271
0.000933124
0.000914511
0.000909934
0.000915436
0.000926156
0.000944922
0.000965065
0.000993159
0.00101841
0.00104678
0.00107593
0.00110941
0.00114513
0.0011843
0.00122436
0.00126624
0.00130679
0.00134537
0.00136693
0.00137529
0.00135931
0.0012495
0.0010647
0.000688246
0.000258029
9.49056e-05
3.64035e-05
5.30514e-06
7.66072e-05
0.000266524
0.000365744
0.000406636
0.000507791
0.000747148
0.00109332
0.00127048
0.00129304
0.00114508
0.00103392
0.000949649
0.000913657
0.000899284
0.000894429
0.000894387
0.000900324
0.000910089
0.000921272
0.000935649
0.000951926
0.000972664
0.000993509
0.00101722
0.00104159
0.00106776
0.00109487
0.00112283
0.00114985
0.00117474
0.00119249
0.00120089
0.00120286
0.0011814
0.00112131
0.000945798
0.000416539
0.000100165
2.7274e-05
3.67435e-06
0.000143894
0.000465144
0.000600143
0.00069468
0.000895805
0.00119747
0.00134437
0.00135134
0.00121501
0.00102574
0.000932334
0.000887422
0.000866528
0.000856921
0.000853568
0.000855161
0.000867382
0.000879832
0.000896536
0.000913501
0.000931734
0.000949872
0.000968389
0.00098789
0.00100886
0.00103206
0.0010576
0.00108499
0.00111209
0.0011342
0.00114958
0.00115702
0.00115943
0.00115132
0.00112293
0.00105276
0.000795968
0.000221035
3.76257e-05
4.23925e-06
0.000239617
0.000710226
0.000882231
0.00101694
0.0012355
0.00136087
0.00137089
0.00125684
0.00102342
0.000909568
0.000856805
0.000832452
0.000822547
0.000820042
0.000825727
0.000838723
0.000854555
0.00087024
0.000886809
0.000902829
0.000919185
0.000935419
0.000952737
0.000971477
0.000992954
0.00101768
0.00104624
0.00107855
0.00111371
0.00114971
0.00116945
0.00117471
0.00117262
0.00115831
0.00112746
0.00107476
0.000939831
0.000458063
8.15688e-05
7.93629e-06
0.00035949
0.000962357
0.00116403
0.00128038
0.00136823
0.00138049
0.00128615
0.00104304
0.000896438
0.00083286
0.000805263
0.000794894
0.000792701
0.000799594
0.000812165
0.000825508
0.000838179
0.000849905
0.000860985
0.000870691
0.00088073
0.000892641
0.000907709
0.000926919
0.000950995
0.000981005
0.00101748
0.00106049
0.00110897
0.0011601
0.00121274
0.00125078
0.00125971
0.00125121
0.00120752
0.00112061
0.000990705
0.000714477
0.000165109
1.79117e-05
0.000487626
0.00121136
0.00138631
0.00142222
0.0014156
0.00131768
0.00109565
0.000901433
0.00081821
0.000784027
0.000771533
0.000768757
0.000773237
0.000783491
0.000792007
0.000798664
0.000802622
0.000804579
0.000805753
0.000807913
0.000812727
0.000820939
0.000833913
0.000852528
0.000877979
0.000911409
0.000953928
0.00100641
0.00106893
0.00113975
0.00121366
0.00128203
0.00132617
0.00133426
0.00132251
0.00124864
0.00108415
0.000815595
0.000282349
4.48811e-05
0.000597076
0.00141156
0.0015465
0.00151246
0.00138063
0.00117612
0.000933897
0.000817703
0.000769785
0.000752032
0.000747237
0.000747258
0.000753087
0.000755806
0.000756292
0.000752593
0.000746553
0.000739925
0.000734804
0.000732562
0.000732298
0.000737879
0.000748925
0.000766605
0.000791952
0.000826182
0.000870765
0.000927377
0.00099765
0.00108232
0.00117938
0.00128081
0.00136477
0.00140366
0.00140705
0.00136934
0.00123628
0.000967163
0.000512604
0.000121603
0.000677252
0.00154639
0.00164813
0.00151103
0.00129322
0.00101876
0.000840994
0.000766446
0.000737291
0.000727186
0.000724479
0.000724059
0.000723903
0.000717891
0.000708484
0.000695775
0.000682512
0.00067028
0.000660584
0.000655457
0.000653667
0.000656509
0.000666654
0.000683261
0.000707852
0.000741374
0.000785424
0.000841972
0.00091357
0.00100299
0.00111206
0.0012388
0.001372
0.0014627
0.00148987
0.00147385
0.00135962
0.00108704
0.000623833
0.000216239
0.000734759
0.00163591
0.00170973
0.00148282
0.00117275
0.000908006
0.000783289
0.000731825
0.000711612
0.000703729
0.000700195
0.000695624
0.000687029
0.000672508
0.000655244
0.000636469
0.000618728
0.00060327
0.000591255
0.000584572
0.000582031
0.000583129
0.00059254
0.000608148
0.000631735
0.000664077
0.00070671
0.000761579
0.000831464
0.000920028
0.00103138
0.00116808
0.00132611
0.00148557
0.00156784
0.0015803
0.00150863
0.00124979
0.000768044
0.000307289
0.000765599
0.00166909
0.00171123
0.00142111
0.00106094
0.000838682
0.00074355
0.00070427
0.000687913
0.000680286
0.000673483
0.000662505
0.000646071
0.000624994
0.000602486
0.000580148
0.000559968
0.000542868
0.00052968
0.000521986
0.000518913
0.000518863
0.000527244
0.000541838
0.000564243
0.000595268
0.000636327
0.000689249
0.000756736
0.000842763
0.000952854
0.0010933
0.00126754
0.00146716
0.00161823
0.00166323
0.0016251
0.00138193
0.000886095
0.000380641
0.000764498
0.00166526
0.00169445
0.00134452
0.000971926
0.000789978
0.000712704
0.000680026
0.000665355
0.000656281
0.000644651
0.000627347
0.000604869
0.000579381
0.00055376
0.000529539
0.000508138
0.000490216
0.000476349
0.000467661
0.000463878
0.00046333
0.000470227
0.000483714
0.000504793
0.000534405
0.000573863
0.00062485
0.000689797
0.000772415
0.000878404
0.00101574
0.00119274
0.00141052
0.00163946
0.00174834
0.00175007
0.00153552
0.00100624
0.000449352
0.000754813
0.00164515
0.00165427
0.00126356
0.000910363
0.000753221
0.000686814
0.000657811
0.000643828
0.000631914
0.000615344
0.000592849
0.000566189
0.000537997
0.000510692
0.000485559
0.000463569
0.000445191
0.000430824
0.000421217
0.000416764
0.000415763
0.000421145
0.000433389
0.000453045
0.000481155
0.000519017
0.000568249
0.000631085
0.000710926
0.000813294
0.000946961
0.0011239
0.00135418
0.00162925
0.00181807
0.00185257
0.00167394
0.00112586
0.000512809
0.000731752
0.00160107
0.00159418
0.00119221
0.000864664
0.000723616
0.000664143
0.000637614
0.000623321
0.000608138
0.000587291
0.000560954
0.000531606
0.000501882
0.000473757
0.000448245
0.000426008
0.000407385
0.000392672
0.000382296
0.000377234
0.000375812
0.000379817
0.000390718
0.000408854
0.000435318
0.000471447
0.000518862
0.000579663
0.00065689
0.000755498
0.00088393
0.00105553
0.00128629
0.00158137
0.00186131
0.00195494
0.00181772
0.00124622
0.00057481
0.000692261
0.00154493
0.00152707
0.0011328
0.000829031
0.000699064
0.000644313
0.000619584
0.000604202
0.000585976
0.000561771
0.000532782
0.000501812
0.000471307
0.000442871
0.000417293
0.000395032
0.000376342
0.000361449
0.000350598
0.00034498
0.000343186
0.000346035
0.000355568
0.000372111
0.000396785
0.00043101
0.000476494
0.000535343
0.000610402
0.000706151
0.000830516
0.00099741
0.00122692
0.0015332
0.00187872
0.00204111
0.00195403
0.00136988
0.000634978
0.00064709
0.00148085
0.00145801
0.0010843
0.000800881
0.000678574
0.00062718
0.000603649
0.00058692
0.000566189
0.000539537
0.000508831
0.000476961
0.000446147
0.000417711
0.000392277
0.000370174
0.000351592
0.000336697
0.00032568
0.000319577
0.000317463
0.000319402
0.000327615
0.000342535
0.000365307
0.000397441
0.000440782
0.000497541
0.000570469
0.00066357
0.000783863
0.000944792
0.00116958
0.00148478
0.00188089
0.00212229
0.00208764
0.00149382
0.000694751
0.000593244
0.00141854
0.00139195
0.00104561
0.000779085
0.000661866
0.000612674
0.000589796
0.0005718
0.000549207
0.000520914
0.000489193
0.000456911
0.000426092
0.000397862
0.000372729
0.000350937
0.000332623
0.000317903
0.000306914
0.000300436
0.000298035
0.000299292
0.000306295
0.000319625
0.000340456
0.000370381
0.000411402
0.00046594
0.000536838
0.000627844
0.000745094
0.000900765
0.00111846
0.00143256
0.00185613
0.00219226
0.00221596
0.00162599
0.00075402
0.000540704
0.0013536
0.00133048
0.00101582
0.00076305
0.000648283
0.000600476
0.000577944
0.000558987
0.000535178
0.000505931
0.000473734
0.000441384
0.000410764
0.000382876
0.000358154
0.000336784
0.000318857
0.00030444
0.000293612
0.000286861
0.000284172
0.000284923
0.00029086
0.000302699
0.000321644
0.000349335
0.00038791
0.000440063
0.000508846
0.000597958
0.000712771
0.000864022
0.00107477
0.00138482
0.00182503
0.00225298
0.00234044
0.00175924
0.000812866
0.000479049
0.0012985
0.00127573
0.000993299
0.000752292
0.000638423
0.000590691
0.000568015
0.000548434
0.000524028
0.000494427
0.00046217
0.000429998
0.000399726
0.000372277
0.000348039
0.000327158
0.000309686
0.000295642
0.000285057
0.000278148
0.000275133
0.000275479
0.0002805
0.000290994
0.000308203
0.000333759
0.000369867
0.000419552
0.00048616
0.000573581
0.000686604
0.000834329
0.00103816
0.00134112
0.00178996
0.00229561
0.00246239
0.00190087
0.000871605
0.000428807
0.00123882
0.00122873
0.000977606
0.000747713
0.000630915
0.000582704
0.000559812
0.000539996
0.000515551
0.000486112
0.000454202
0.000422459
0.000392621
0.000365633
0.0003419
0.000321536
0.000304544
0.000290894
0.000280573
0.000273654
0.000270326
0.000270605
0.000274959
0.0002843
0.000299814
0.000323108
0.000356827
0.000404059
0.000468414
0.00055424
0.000665979
0.000811124
0.00100881
0.00130374
0.00175751
0.00232621
0.00258187
0.00204513
0.000929588
0.000385903
0.00117737
0.00118414
0.000970592
0.000749387
0.00062905
0.00057718
0.000553144
0.00053335
0.000509406
0.000480654
0.000449326
0.00041808
0.000388887
0.000362633
0.000339565
0.000319768
0.000303217
0.000289858
0.000279662
0.000272685
0.000269111
0.000269285
0.000273057
0.000281665
0.000296012
0.000317685
0.00034904
0.000393378
0.000455403
0.000539717
0.000650595
0.000793992
0.000986089
0.00127154
0.00172705
0.00234331
0.0026987
0.00219728
0.000987336
0.000347787
0.00111685
0.00114436
0.000971251
0.000755323
0.000630828
0.000573855
0.000548191
0.000528352
0.000505246
0.000477521
0.000447484
0.000417533
0.000389085
0.000363162
0.000340356
0.000320795
0.000304464
0.000291302
0.00028127
0.000274399
0.000270837
0.000270893
0.000273926
0.000281535
0.000295095
0.000315814
0.00034573
0.000388092
0.000447826
0.00053031
0.000640657
0.000783376
0.000970061
0.00124514
0.0016981
0.0023525
0.00281338
0.00235349
0.00104383
0.00031305
0.00105846
0.00110874
0.000974416
0.00076843
0.000636453
0.000574381
0.000544493
0.000524664
0.000502716
0.00047669
0.000447994
0.000418726
0.000390878
0.000365516
0.000343169
0.000324026
0.000308099
0.000295291
0.000285536
0.000278835
0.000275329
0.000275413
0.000278076
0.00028496
0.000297531
0.000316786
0.000345187
0.000386332
0.000444718
0.000525939
0.000635992
0.000778562
0.000961843
0.00122445
0.00167013
0.0023562
0.00292442
0.00251615
0.00109944
0.000280451
0.00100158
0.00107786
0.000981878
0.000786066
0.00064822
0.000577371
0.000544081
0.000522155
0.000501282
0.000477128
0.000449757
0.000421816
0.000395046
0.000370573
0.000348931
0.000330328
0.000314779
0.000302251
0.000292692
0.000286092
0.000282616
0.000282772
0.000285293
0.000291786
0.000303832
0.000322253
0.000349222
0.000388166
0.00044443
0.000524807
0.000634694
0.000777328
0.000958799
0.00120963
0.00164439
0.00235675
0.0030325
0.00268325
0.0011531
0.000249533
0.000946696
0.00105094
0.000987682
0.000814318
0.000667542
0.000584692
0.000545578
0.000522228
0.000501503
0.000478484
0.000453289
0.000427067
0.000401566
0.000378013
0.000357062
0.000338998
0.000323884
0.000311704
0.000302416
0.000296011
0.000292703
0.000292992
0.000295548
0.000301924
0.000313697
0.000331607
0.000357757
0.000395545
0.000450251
0.000529018
0.000638648
0.000781767
0.00095997
0.00120214
0.00162054
0.0023509
0.0031345
0.00285572
0.00120499
0.000219273
0.000890737
0.0010274
0.000988751
0.00084799
0.000695816
0.00059967
0.00055046
0.000523675
0.0005026
0.000481098
0.000457854
0.000433561
0.000409632
0.00038727
0.000367221
0.000349858
0.000335313
0.000323606
0.000314724
0.000308641
0.000305699
0.000306185
0.000308928
0.000315443
0.000327165
0.000344827
0.000370462
0.000407411
0.000461032
0.000538886
0.000648321
0.00079202
0.000968731
0.00119944
0.00159917
0.00234383
0.00323231
0.00302894
0.00125408
0.000189655
0.000834519
0.00100339
0.00098667
0.000884642
0.000731305
0.000623287
0.000561215
0.000528067
0.00050533
0.000484663
0.000463209
0.000440936
0.000418831
0.00039796
0.000379094
0.000362681
0.000348923
0.000337887
0.000329608
0.000324007
0.0003217
0.000322457
0.000325526
0.000332424
0.0003443
0.000361958
0.000387383
0.000423889
0.000476798
0.000553849
0.000662831
0.000806532
0.000981129
0.00119944
0.00157885
0.0023261
0.00332527
0.00320298
0.00130066
0.0001595
0.00077194
0.000981556
0.000980546
0.000918399
0.000776836
0.000657334
0.000581504
0.000537879
0.000511116
0.000489808
0.000469465
0.000449006
0.000428815
0.000409681
0.000392303
0.000377145
0.000364463
0.00035436
0.000346947
0.000342016
0.000340671
0.000341777
0.000345309
0.000352827
0.000365044
0.000382918
0.000408411
0.00044484
0.000497428
0.000573903
0.000682122
0.00082512
0.000997443
0.00120498
0.00156163
0.0023009
0.00341036
0.00337024
0.00134379
0.000132164
0.000713313
0.000957096
0.000972582
0.000936797
0.000828361
0.000703506
0.000613899
0.000557673
0.000522948
0.000498487
0.000477754
0.000458314
0.000439722
0.000422315
0.000406584
0.000392925
0.000381595
0.000372703
0.000366416
0.000362411
0.000362299
0.000363834
0.000367996
0.000376373
0.000389087
0.000407375
0.000433191
0.000469883
0.000522472
0.000598465
0.000705354
0.000846419
0.00101527
0.00121129
0.00154473
0.00226776
0.00348181
0.00352666
0.00138423
0.000109156
0.000648952
0.000940124
0.000965075
0.000945341
0.000875551
0.000758926
0.000660629
0.000591185
0.000545492
0.000514331
0.000490569
0.000470439
0.000452451
0.000436274
0.000422014
0.000409878
0.000400012
0.000392554
0.000387445
0.000385036
0.000385609
0.000387958
0.000393236
0.000402404
0.000415765
0.000434663
0.00046103
0.000498273
0.000551049
0.000626468
0.000731174
0.000868721
0.0010327
0.00121755
0.00152889
0.00223161
0.00353718
0.00366185
0.00142164
8.8535e-05
0.000567446
0.000932544
0.00096375
0.000951351
0.000909123
0.000817634
0.000721592
0.000643179
0.000585596
0.00054445
0.000514017
0.000490142
0.000470497
0.000453996
0.000440195
0.000428978
0.000420185
0.000414044
0.000409897
0.000409265
0.000410405
0.000413594
0.000420101
0.000430101
0.000444213
0.000463887
0.000490973
0.000528931
0.000581825
0.000656256
0.000757594
0.000889785
0.00104733
0.00122196
0.00151645
0.00219936
0.00357473
0.00376503
0.00145785
6.96987e-05
0.000470308
0.000912853
0.000964665
0.000958772
0.000934642
0.000874734
0.000791407
0.00071329
0.000647961
0.000596508
0.000556655
0.000525543
0.000500921
0.000481318
0.000465776
0.000453825
0.000444866
0.000439083
0.000435426
0.000435623
0.000437258
0.000441194
0.000448504
0.000459224
0.000474038
0.000494514
0.000522292
0.000560866
0.000613427
0.000686092
0.000782719
0.000907955
0.00105833
0.00122612
0.00151143
0.00218434
0.00359936
0.00381532
0.00149452
6.00788e-05
0.000389643
0.000863339
0.000959671
0.000962587
0.000954922
0.000928504
0.000871321
0.000802678
0.000737435
0.000679738
0.000630835
0.000590382
0.000557432
0.000531048
0.000510231
0.000494429
0.000482626
0.000474991
0.000469873
0.000469262
0.000470553
0.000474083
0.000481204
0.000492056
0.000507102
0.000528015
0.000556074
0.00059477
0.000646219
0.000716261
0.000807405
0.00092549
0.00107065
0.00123982
0.00152337
0.00218287
0.00362434
0.00383372
0.00151792
6.22888e-05
0.000361015
0.000765801
0.000934868
0.000968162
0.00097752
0.000973095
0.000953599
0.000910641
0.000854869
0.000798474
0.000745288
0.000697413
0.000655728
0.000620517
0.000591449
0.00056823
0.000550125
0.000536778
0.00052761
0.000521847
0.000521044
0.000522665
0.000527263
0.000536703
0.00055095
0.000571566
0.000599342
0.000637728
0.000687886
0.000755709
0.000843283
0.000958043
0.00110638
0.00129278
0.00160299
0.00226734
0.00366955
0.00381778
0.0015262
8.87922e-05
0.000385218
0.000676624
0.000880187
0.000979434
0.00102472
0.00104718
0.00104799
0.00103694
0.00100817
0.000962455
0.000912172
0.000861629
0.000813593
0.000769848
0.000731044
0.000697737
0.000669637
0.000647086
0.000629179
0.00061692
0.000608147
0.000606727
0.000608951
0.000615255
0.000628144
0.000648865
0.000677547
0.000717711
0.000770328
0.000841672
0.000935388
0.0010603
0.00123251
0.00146066
0.00183255
0.00249439
0.00373851
0.00371061
0.00151634
0.000144157
0.000482326
0.000694622
0.000902789
0.00104128
0.00113739
0.00119947
0.00122732
0.00123286
0.0012236
0.00119841
0.00115516
0.00110479
0.00105165
0.000999417
0.000950144
0.000906067
0.00086696
0.000835579
0.000810367
0.00079385
0.000782096
0.00078004
0.000783132
0.000791872
0.00080976
0.000837929
0.000877061
0.00093169
0.00100307
0.00109932
0.00122593
0.00139378
0.00162525
0.00192611
0.00238461
0.00301117
0.00386671
0.00360808
0.00146863
0.000239535
0.000678251
0.000870489
0.00110253
0.00128744
0.00143249
0.0015301
0.00158022
0.00158525
0.0015759
0.00155178
0.00151001
0.00146174
0.00141097
0.00136284
0.00131811
0.00128053
0.00125017
0.00122839
0.00121173
0.00120931
0.00121366
0.00122595
0.00125113
0.00128919
0.00133943
0.00140778
0.00148994
0.00159607
0.00172479
0.00189744
0.00210095
0.00236665
0.00268136
0.00307705
0.00357195
0.00400454
0.00414432
0.00347765
0.00138044
0.000397221
0.00112341
0.00154419
0.00193504
0.0021742
0.00232427
0.00240723
0.00243874
0.00242978
0.00240826
0.00237939
0.00234526
0.00231278
0.00228268
0.00226292
0.00224777
0.0022495
0.00225825
0.00227846
0.00231243
0.00235946
0.00242094
0.00249706
0.00258825
0.00269886
0.00282365
0.00297697
0.00313777
0.00334756
0.00354337
0.00381354
0.00403716
0.00438164
0.00460167
0.00501139
0.00509684
0.00495627
0.00434589
0.00304114
0.00120284
0.000269535
0.000414283
0.000536639
0.00066177
0.000776644
0.000880036
0.000968595
0.00104007
0.00109072
0.00112236
0.00114213
0.0011481
0.00114581
0.00113916
0.00112687
0.00111125
0.00109421
0.00107772
0.00106042
0.00104517
0.00103017
0.00101822
0.00100719
0.000999691
0.000993712
0.000991679
0.000992711
0.000995927
0.00100412
0.00101254
0.00103058
0.00104573
0.0010807
0.00110795
0.00116902
0.00120852
0.00127514
0.00128109
0.00123776
0.0010339
)
;

boundaryField
{
    movingWall
    {
        type            kqRWallFunction;
        value           nonuniform List<scalar> 
40
(
0.000269535
0.000414283
0.000536639
0.00066177
0.000776644
0.000880036
0.000968595
0.00104007
0.00109072
0.00112236
0.00114213
0.0011481
0.00114581
0.00113916
0.00112687
0.00111125
0.00109421
0.00107772
0.00106042
0.00104517
0.00103017
0.00101822
0.00100719
0.000999691
0.000993712
0.000991679
0.000992711
0.000995927
0.00100412
0.00101254
0.00103058
0.00104573
0.0010807
0.00110795
0.00116902
0.00120852
0.00127514
0.00128109
0.00123776
0.0010339
)
;
    }
    fixedWalls
    {
        type            kqRWallFunction;
        value           nonuniform List<scalar> 
120
(
2.29474e-06
1.10831e-05
3.34835e-05
7.66072e-05
0.000143894
0.000239617
0.00035949
0.000487626
0.000597076
0.000677252
0.000734759
0.000765599
0.000764498
0.000754813
0.000731752
0.000692261
0.00064709
0.000593244
0.000540704
0.000479049
0.000428807
0.000385903
0.000347787
0.00031305
0.000280451
0.000249533
0.000219273
0.000189655
0.0001595
0.000132164
0.000109156
8.8535e-05
6.96987e-05
6.00788e-05
6.22888e-05
8.87922e-05
0.000144157
0.000239535
0.000397221
0.000269535
3.86414e-06
6.47538e-06
5.30514e-06
3.67435e-06
4.23925e-06
7.93629e-06
1.79117e-05
4.48811e-05
0.000121603
0.000216239
0.000307289
0.000380641
0.000449352
0.000512809
0.00057481
0.000634978
0.000694751
0.00075402
0.000812866
0.000871605
0.000929588
0.000987336
0.00104383
0.00109944
0.0011531
0.00120499
0.00125408
0.00130066
0.00134379
0.00138423
0.00142164
0.00145785
0.00149452
0.00151792
0.0015262
0.00151634
0.00146863
0.00138044
0.00120284
0.0010339
2.29474e-06
7.66424e-06
1.475e-05
1.4648e-05
1.33678e-05
1.36952e-05
1.77429e-05
3.02754e-05
4.55639e-05
6.6382e-05
0.000101604
0.000126052
0.000138595
0.000154231
0.00017856
0.000209552
0.000238049
0.000270996
0.000302474
0.000338868
0.000375783
0.00041834
0.000464128
0.000517809
0.000580148
0.000634854
0.000691121
0.000738697
0.000780105
0.000802452
0.000811329
0.000795127
0.000731471
0.000623106
0.000470084
0.000280473
0.00013713
5.7891e-05
1.85392e-05
3.86414e-06
)
;
    }
    frontAndBack
    {
        type            empty;
    }
}


// ************************************************************************* //
