/*--------------------------------*- C++ -*----------------------------------*\
  =========                 |
  \\      /  F ield         | OpenFOAM: The Open Source CFD Toolbox
   \\    /   O peration     | Website:  https://openfoam.org
    \\  /    A nd           | Version:  12
     \\/     M anipulation  |
\*---------------------------------------------------------------------------*/
FoamFile
{
    format      ascii;
    class       volScalarField;
    location    "8.5";
    object      nut;
}
// * * * * * * * * * * * * * * * * * * * * * * * * * * * * * * * * * * * * * //

dimensions      [0 2 -1 0 0 0 0];

internalField   nonuniform List<scalar> 
1600
(
1.61415e-08
5.39062e-08
1.0374e-07
1.03019e-07
9.40126e-08
9.63134e-08
1.24778e-07
2.12915e-07
3.2044e-07
4.66882e-07
7.14573e-07
8.86491e-07
9.747e-07
1.08469e-06
1.25581e-06
1.47378e-06
1.67418e-06
1.90588e-06
2.12724e-06
2.38317e-06
2.64276e-06
2.94203e-06
3.26401e-06
3.6415e-06
4.07988e-06
4.46454e-06
4.86019e-06
5.19472e-06
5.48589e-06
5.64301e-06
5.70542e-06
5.59147e-06
5.14387e-06
4.38188e-06
3.30583e-06
1.97249e-06
9.64439e-07
4.0717e-07
1.304e-07
2.71803e-08
7.7958e-08
1.23143e-06
3.66407e-06
4.35315e-06
4.25898e-06
4.08468e-06
4.67066e-06
6.34861e-06
6.9285e-06
7.9311e-06
9.33051e-06
1.02279e-05
1.06859e-05
1.15128e-05
1.23261e-05
1.39327e-05
1.49658e-05
1.66874e-05
1.79084e-05
1.94458e-05
2.06952e-05
2.20651e-05
2.32838e-05
2.43084e-05
2.4868e-05
2.57023e-05
2.62307e-05
2.6724e-05
2.68696e-05
2.65238e-05
2.62564e-05
2.49783e-05
2.31379e-05
1.99285e-05
1.66484e-05
1.09502e-05
5.3343e-06
2.12412e-06
7.22865e-07
4.55458e-08
2.35515e-07
3.34698e-06
8.07698e-06
9.6665e-06
1.01911e-05
1.0636e-05
1.33959e-05
1.71103e-05
1.80586e-05
1.82631e-05
1.67636e-05
1.58863e-05
1.55223e-05
1.69538e-05
1.84325e-05
2.02149e-05
2.21252e-05
2.4133e-05
2.59178e-05
2.78048e-05
2.9347e-05
3.06434e-05
3.13403e-05
3.1901e-05
3.22228e-05
3.2408e-05
3.23178e-05
3.1988e-05
3.13123e-05
3.02174e-05
2.83228e-05
2.63793e-05
2.48506e-05
2.11468e-05
1.76024e-05
1.07986e-05
4.68976e-06
2.29576e-06
9.35001e-07
3.73144e-08
5.38817e-07
7.28535e-06
1.39651e-05
1.62064e-05
1.73226e-05
1.92389e-05
2.17828e-05
2.21032e-05
2.16569e-05
1.87485e-05
1.78399e-05
1.92165e-05
2.11776e-05
2.39846e-05
2.59391e-05
2.84447e-05
3.02974e-05
3.20292e-05
3.33032e-05
3.44769e-05
3.52737e-05
3.59417e-05
3.62967e-05
3.65175e-05
3.65018e-05
3.62896e-05
3.5825e-05
3.50911e-05
3.40056e-05
3.2543e-05
3.05499e-05
2.8006e-05
2.49088e-05
2.15416e-05
1.86409e-05
1.43425e-05
5.40255e-06
1.81947e-06
6.4663e-07
2.58428e-08
1.01205e-06
1.30925e-05
2.0716e-05
2.21441e-05
2.3124e-05
2.49607e-05
2.50528e-05
2.43558e-05
2.15248e-05
2.03585e-05
2.23448e-05
2.45665e-05
2.74398e-05
3.01128e-05
3.21596e-05
3.39681e-05
3.574e-05
3.70604e-05
3.84213e-05
3.91664e-05
3.98707e-05
4.02614e-05
4.05086e-05
4.05553e-05
4.04578e-05
4.01865e-05
3.97068e-05
3.89446e-05
3.78087e-05
3.60793e-05
3.38117e-05
3.11261e-05
2.82163e-05
2.46474e-05
2.00327e-05
1.65061e-05
1.05359e-05
2.83638e-06
6.54945e-07
2.98136e-08
1.68524e-06
1.93201e-05
2.6548e-05
2.70061e-05
2.75454e-05
2.71046e-05
2.63293e-05
2.38993e-05
2.22345e-05
2.43683e-05
2.67769e-05
2.97224e-05
3.26502e-05
3.47951e-05
3.65837e-05
3.83395e-05
3.99393e-05
4.11154e-05
4.20547e-05
4.27306e-05
4.32837e-05
4.35891e-05
4.3749e-05
4.37145e-05
4.35693e-05
4.32787e-05
4.28547e-05
4.22604e-05
4.144e-05
4.0315e-05
3.78873e-05
3.45797e-05
3.12385e-05
2.7586e-05
2.33037e-05
1.84525e-05
1.33831e-05
4.53939e-06
1.00873e-06
5.58097e-08
2.52826e-06
2.4134e-05
3.11212e-05
3.03638e-05
2.90525e-05
2.82204e-05
2.5956e-05
2.3664e-05
2.56152e-05
2.83635e-05
3.11981e-05
3.43314e-05
3.64958e-05
3.84244e-05
4.02604e-05
4.18317e-05
4.3174e-05
4.42072e-05
4.50409e-05
4.55722e-05
4.59103e-05
4.60938e-05
4.61892e-05
4.61832e-05
4.60679e-05
4.5853e-05
4.55336e-05
4.50874e-05
4.44609e-05
4.35536e-05
4.24997e-05
4.04924e-05
3.69746e-05
3.30289e-05
2.80768e-05
2.18013e-05
1.585e-05
8.38343e-06
1.62469e-06
1.25956e-07
3.42939e-06
2.83485e-05
3.39936e-05
3.22763e-05
3.08593e-05
2.7975e-05
2.5395e-05
2.63516e-05
2.9204e-05
3.21963e-05
3.51682e-05
3.76597e-05
3.96038e-05
4.15915e-05
4.32069e-05
4.45871e-05
4.56725e-05
4.64675e-05
4.69874e-05
4.73907e-05
4.78615e-05
4.8056e-05
4.82046e-05
4.82236e-05
4.81407e-05
4.79623e-05
4.7697e-05
4.73518e-05
4.69091e-05
4.63006e-05
4.53652e-05
4.3938e-05
4.14038e-05
3.76085e-05
3.38488e-05
2.77113e-05
1.93198e-05
1.06463e-05
2.16719e-06
3.15601e-07
4.19908e-06
3.11455e-05
3.62811e-05
3.43738e-05
3.07124e-05
2.75104e-05
2.66369e-05
2.94118e-05
3.265e-05
3.55759e-05
3.82771e-05
4.02459e-05
4.22113e-05
4.38286e-05
4.52989e-05
4.64259e-05
4.73185e-05
4.80474e-05
4.87263e-05
4.92328e-05
4.95067e-05
5.00496e-05
5.01667e-05
5.02603e-05
5.01713e-05
4.99609e-05
4.96277e-05
4.92103e-05
4.87451e-05
4.82479e-05
4.76559e-05
4.67406e-05
4.47677e-05
4.11735e-05
3.71238e-05
3.30536e-05
2.51275e-05
1.48329e-05
4.70685e-06
8.55114e-07
4.76293e-06
3.27934e-05
3.79718e-05
3.46752e-05
3.03671e-05
2.7436e-05
2.91898e-05
3.24532e-05
3.56392e-05
3.82231e-05
4.05293e-05
4.23141e-05
4.41443e-05
4.55813e-05
4.68496e-05
4.78674e-05
4.87824e-05
4.96192e-05
5.03967e-05
5.11149e-05
5.15291e-05
5.21071e-05
5.24366e-05
5.25623e-05
5.25124e-05
5.22576e-05
5.1817e-05
5.1219e-05
5.05307e-05
4.9838e-05
4.92101e-05
4.86122e-05
4.77717e-05
4.46894e-05
4.00727e-05
3.6219e-05
2.95117e-05
1.83559e-05
6.25281e-06
1.52058e-06
5.16734e-06
3.40043e-05
3.95327e-05
3.48267e-05
2.99536e-05
2.90808e-05
3.18054e-05
3.51255e-05
3.7959e-05
4.01353e-05
4.22252e-05
4.39433e-05
4.56045e-05
4.69152e-05
4.81219e-05
4.91963e-05
5.02462e-05
5.1254e-05
5.22056e-05
5.3174e-05
5.37782e-05
5.42856e-05
5.4913e-05
5.50688e-05
5.50952e-05
5.48449e-05
5.43469e-05
5.35983e-05
5.26542e-05
5.16186e-05
5.06335e-05
4.98045e-05
4.90564e-05
4.79293e-05
4.36187e-05
3.95044e-05
3.43487e-05
2.31361e-05
8.90903e-06
2.16083e-06
5.38424e-06
3.43046e-05
3.99747e-05
3.49963e-05
3.01672e-05
3.1062e-05
3.41234e-05
3.7213e-05
3.95993e-05
4.15964e-05
4.35711e-05
4.51994e-05
4.67428e-05
4.80335e-05
4.93036e-05
5.05297e-05
5.17648e-05
5.29641e-05
5.40929e-05
5.52579e-05
5.60144e-05
5.64605e-05
5.72991e-05
5.7503e-05
5.7611e-05
5.74272e-05
5.69649e-05
5.61852e-05
5.5099e-05
5.37862e-05
5.24232e-05
5.12464e-05
5.0412e-05
4.97547e-05
4.62806e-05
4.14926e-05
3.75204e-05
2.67792e-05
1.12069e-05
2.67662e-06
5.3765e-06
3.42429e-05
4.03335e-05
3.49335e-05
3.10927e-05
3.28697e-05
3.5973e-05
3.87613e-05
4.07982e-05
4.27533e-05
4.46172e-05
4.6185e-05
4.76919e-05
4.90552e-05
5.04637e-05
5.18772e-05
5.33002e-05
5.467e-05
5.59375e-05
5.71882e-05
5.79969e-05
5.84638e-05
5.93458e-05
5.9587e-05
5.97511e-05
5.96643e-05
5.93179e-05
5.86404e-05
5.75752e-05
5.61237e-05
5.44119e-05
5.27174e-05
5.13715e-05
5.04713e-05
4.90484e-05
4.38171e-05
4.04455e-05
3.07658e-05
1.38086e-05
3.15977e-06
5.3084e-06
3.39587e-05
4.06158e-05
3.4916e-05
3.23116e-05
3.43833e-05
3.7371e-05
3.98594e-05
4.17288e-05
4.36558e-05
4.54336e-05
4.69895e-05
4.85299e-05
5.0021e-05
5.15954e-05
5.31914e-05
5.47758e-05
5.62726e-05
5.76214e-05
5.88762e-05
5.96861e-05
6.01464e-05
6.09601e-05
6.11878e-05
6.1357e-05
6.13524e-05
6.11572e-05
6.06831e-05
5.9813e-05
5.84498e-05
5.6614e-05
5.45498e-05
5.27318e-05
5.16323e-05
5.12257e-05
4.64412e-05
4.22095e-05
3.38311e-05
1.61859e-05
3.60597e-06
5.14624e-06
3.33425e-05
4.03935e-05
3.51121e-05
3.33358e-05
3.55536e-05
3.83876e-05
4.06387e-05
4.24567e-05
4.43534e-05
4.60814e-05
4.76673e-05
4.92846e-05
5.09231e-05
5.26596e-05
5.44153e-05
5.61298e-05
5.77185e-05
5.91134e-05
6.0307e-05
6.10864e-05
6.15118e-05
6.21797e-05
6.23316e-05
6.24403e-05
6.24653e-05
6.24028e-05
6.21697e-05
6.16096e-05
6.05277e-05
5.87892e-05
5.64789e-05
5.40286e-05
5.20985e-05
5.11161e-05
4.84592e-05
4.39006e-05
3.67847e-05
1.85388e-05
4.04194e-06
4.86852e-06
3.24881e-05
3.99391e-05
3.53865e-05
3.41314e-05
3.64027e-05
3.91066e-05
4.12186e-05
4.30196e-05
4.48893e-05
4.66007e-05
4.82402e-05
4.99511e-05
5.17316e-05
5.36112e-05
5.55012e-05
5.73223e-05
5.89832e-05
6.04072e-05
6.15387e-05
6.22569e-05
6.26277e-05
6.31063e-05
6.31285e-05
6.31101e-05
6.30884e-05
6.30914e-05
6.30623e-05
6.28392e-05
6.21639e-05
6.07666e-05
5.85527e-05
5.58462e-05
5.3402e-05
5.18179e-05
5.0102e-05
4.50825e-05
3.90728e-05
2.07632e-05
4.465e-06
4.55087e-06
3.14482e-05
3.93086e-05
3.56405e-05
3.47083e-05
3.69856e-05
3.96061e-05
4.16482e-05
4.34482e-05
4.52946e-05
4.70102e-05
4.87096e-05
5.05102e-05
5.24117e-05
5.44098e-05
5.64114e-05
5.83248e-05
6.00514e-05
6.15035e-05
6.26123e-05
6.32514e-05
6.35564e-05
6.38334e-05
6.36953e-05
6.35024e-05
6.33655e-05
6.33572e-05
6.34632e-05
6.35451e-05
6.33113e-05
6.23693e-05
6.0397e-05
5.74988e-05
5.44987e-05
5.25446e-05
5.1639e-05
4.63533e-05
4.09708e-05
2.29069e-05
4.8853e-06
4.1722e-06
3.03963e-05
3.85541e-05
3.58209e-05
3.51061e-05
3.73539e-05
3.99341e-05
4.19509e-05
4.37564e-05
4.55857e-05
4.73148e-05
4.90635e-05
5.09343e-05
5.29283e-05
5.50186e-05
5.71111e-05
5.91062e-05
6.08985e-05
6.23892e-05
6.34982e-05
6.40727e-05
6.43099e-05
6.43979e-05
6.40937e-05
6.37053e-05
6.3405e-05
6.33156e-05
6.34725e-05
6.37893e-05
6.39829e-05
6.3595e-05
6.21033e-05
5.93016e-05
5.5816e-05
5.31044e-05
5.21012e-05
4.76095e-05
4.25208e-05
2.49641e-05
5.30204e-06
3.80271e-06
2.91921e-05
3.77075e-05
3.59179e-05
3.53391e-05
3.7547e-05
4.01125e-05
4.21466e-05
4.39646e-05
4.57738e-05
4.75085e-05
4.92918e-05
5.12102e-05
5.32619e-05
5.54097e-05
5.75646e-05
5.96236e-05
6.14742e-05
6.30051e-05
6.41245e-05
6.46653e-05
6.48406e-05
6.47769e-05
6.43241e-05
6.37466e-05
6.32675e-05
6.30592e-05
6.31978e-05
6.36716e-05
6.42272e-05
6.43877e-05
6.34733e-05
6.09692e-05
5.72008e-05
5.37531e-05
5.22689e-05
4.89275e-05
4.38404e-05
2.68669e-05
5.71581e-06
3.36912e-06
2.8242e-05
3.67786e-05
3.5895e-05
3.5477e-05
3.75834e-05
4.01687e-05
4.22292e-05
4.40555e-05
4.58509e-05
4.75931e-05
4.9376e-05
5.12894e-05
5.33529e-05
5.55268e-05
5.77211e-05
5.98244e-05
6.17112e-05
6.32642e-05
6.4386e-05
6.49257e-05
6.50393e-05
6.47965e-05
6.42044e-05
6.35176e-05
6.29589e-05
6.2635e-05
6.27095e-05
6.32802e-05
6.41283e-05
6.48109e-05
6.45432e-05
6.25276e-05
5.86796e-05
5.45012e-05
5.21759e-05
4.99524e-05
4.49935e-05
2.87246e-05
6.12883e-06
3.01578e-06
2.68725e-05
3.58693e-05
3.58018e-05
3.5483e-05
3.75082e-05
4.00648e-05
4.22124e-05
4.40689e-05
4.58364e-05
4.75364e-05
4.93163e-05
5.12524e-05
5.33198e-05
5.54738e-05
5.76288e-05
5.96641e-05
6.15053e-05
6.30406e-05
6.41603e-05
6.47568e-05
6.48568e-05
6.44813e-05
6.38107e-05
6.29881e-05
6.22401e-05
6.17927e-05
6.19496e-05
6.26878e-05
6.3758e-05
6.4905e-05
6.5277e-05
6.38575e-05
6.01427e-05
5.54272e-05
5.23889e-05
5.06909e-05
4.60594e-05
3.03983e-05
6.53653e-06
2.71404e-06
2.53311e-05
3.44354e-05
3.58228e-05
3.54544e-05
3.72244e-05
3.98945e-05
4.20521e-05
4.39178e-05
4.56789e-05
4.74145e-05
4.91056e-05
5.08276e-05
5.2715e-05
5.47455e-05
5.68283e-05
5.88976e-05
6.07809e-05
6.23491e-05
6.34905e-05
6.41293e-05
6.42811e-05
6.40114e-05
6.34213e-05
6.25734e-05
6.16648e-05
6.11008e-05
6.10676e-05
6.16812e-05
6.30748e-05
6.4748e-05
6.57295e-05
6.49593e-05
6.15158e-05
5.63504e-05
5.26919e-05
5.11504e-05
4.70358e-05
3.20259e-05
6.94258e-06
2.44598e-06
2.36584e-05
3.28525e-05
3.57772e-05
3.54025e-05
3.70102e-05
3.93785e-05
4.18238e-05
4.375e-05
4.54747e-05
4.69998e-05
4.86228e-05
5.04466e-05
5.23521e-05
5.43105e-05
5.63014e-05
5.82408e-05
6.00133e-05
6.14975e-05
6.25881e-05
6.32066e-05
6.32978e-05
6.30401e-05
6.25089e-05
6.17569e-05
6.10924e-05
6.06312e-05
6.04935e-05
6.0949e-05
6.23642e-05
6.42362e-05
6.58512e-05
6.58839e-05
6.27527e-05
5.72541e-05
5.30182e-05
5.14346e-05
4.78843e-05
3.35572e-05
7.33979e-06
2.20168e-06
2.18986e-05
3.09725e-05
3.55871e-05
3.5367e-05
3.66785e-05
3.90744e-05
4.12207e-05
4.32786e-05
4.49946e-05
4.66366e-05
4.82742e-05
4.99481e-05
5.16966e-05
5.34946e-05
5.5307e-05
5.7059e-05
5.86789e-05
6.00564e-05
6.10946e-05
6.17215e-05
6.18772e-05
6.16784e-05
6.12329e-05
6.05591e-05
5.98977e-05
5.94657e-05
5.95774e-05
6.04539e-05
6.19195e-05
6.38519e-05
6.58704e-05
6.6435e-05
6.39628e-05
5.80245e-05
5.32669e-05
5.15824e-05
4.86394e-05
3.50442e-05
7.73081e-06
1.9724e-06
2.00829e-05
2.91384e-05
3.51917e-05
3.5139e-05
3.61998e-05
3.85701e-05
4.08461e-05
4.27228e-05
4.45125e-05
4.61864e-05
4.765e-05
4.91306e-05
5.06938e-05
5.23356e-05
5.39988e-05
5.5608e-05
5.7083e-05
5.8345e-05
5.93164e-05
5.99407e-05
6.01632e-05
6.0034e-05
5.97095e-05
5.91953e-05
5.86752e-05
5.83549e-05
5.84627e-05
5.92543e-05
6.0989e-05
6.35367e-05
6.58326e-05
6.67011e-05
6.47182e-05
5.86611e-05
5.34039e-05
5.1699e-05
4.93642e-05
3.64308e-05
8.10811e-06
1.75495e-06
1.8254e-05
2.73489e-05
3.42132e-05
3.5311e-05
3.58273e-05
3.77885e-05
4.02732e-05
4.22944e-05
4.40222e-05
4.54954e-05
4.69179e-05
4.82864e-05
4.96793e-05
5.11193e-05
5.2577e-05
5.39956e-05
5.53069e-05
5.64427e-05
5.73399e-05
5.79554e-05
5.82671e-05
5.82161e-05
5.80335e-05
5.77245e-05
5.73967e-05
5.72543e-05
5.75122e-05
5.84242e-05
6.01932e-05
6.27721e-05
6.55312e-05
6.7072e-05
6.52597e-05
5.91996e-05
5.33622e-05
5.1545e-05
4.99767e-05
3.77586e-05
8.47294e-06
1.54212e-06
1.63996e-05
2.55545e-05
3.25734e-05
3.53348e-05
3.56211e-05
3.71067e-05
3.94202e-05
4.16077e-05
4.33219e-05
4.4776e-05
4.61063e-05
4.73585e-05
4.8592e-05
4.9839e-05
5.10922e-05
5.2316e-05
5.34592e-05
5.44674e-05
5.52907e-05
5.58909e-05
5.63098e-05
5.63394e-05
5.63061e-05
5.62252e-05
5.61141e-05
5.61777e-05
5.66066e-05
5.76444e-05
5.952e-05
6.22612e-05
6.51983e-05
6.70048e-05
6.59009e-05
5.94808e-05
5.31793e-05
5.12884e-05
5.04826e-05
3.8958e-05
8.8181e-06
1.33381e-06
1.45779e-05
2.36636e-05
3.07108e-05
3.51964e-05
3.5376e-05
3.64635e-05
3.84018e-05
4.06231e-05
4.24508e-05
4.39436e-05
4.52231e-05
4.6378e-05
4.7473e-05
4.85484e-05
4.96147e-05
5.06563e-05
5.16408e-05
5.25292e-05
5.3287e-05
5.38663e-05
5.44037e-05
5.45112e-05
5.46242e-05
5.4776e-05
5.48886e-05
5.51706e-05
5.57856e-05
5.69625e-05
5.89109e-05
6.17076e-05
6.47385e-05
6.67009e-05
6.58273e-05
5.95541e-05
5.2783e-05
5.07642e-05
5.09036e-05
4.00883e-05
9.14561e-06
1.12172e-06
1.27648e-05
2.21631e-05
2.83516e-05
3.4485e-05
3.54317e-05
3.60315e-05
3.75614e-05
3.95233e-05
4.14338e-05
4.29864e-05
4.42554e-05
4.5345e-05
4.63334e-05
4.7272e-05
4.81852e-05
4.90744e-05
4.99248e-05
5.07117e-05
5.14195e-05
5.1978e-05
5.26363e-05
5.28147e-05
5.30628e-05
5.34379e-05
5.37646e-05
5.42595e-05
5.50558e-05
5.63683e-05
5.8362e-05
6.1146e-05
6.41156e-05
6.60541e-05
6.52519e-05
5.92211e-05
5.2092e-05
4.99209e-05
5.12034e-05
4.10598e-05
9.44891e-06
9.29451e-07
1.12382e-05
2.08496e-05
2.60293e-05
3.25104e-05
3.54017e-05
3.58268e-05
3.68826e-05
3.85341e-05
4.03368e-05
4.19386e-05
4.32373e-05
4.43038e-05
4.52231e-05
4.606e-05
4.68542e-05
4.76228e-05
4.83661e-05
4.90735e-05
4.97405e-05
5.02985e-05
5.1049e-05
5.1289e-05
5.16641e-05
5.22428e-05
5.27558e-05
5.34401e-05
5.43908e-05
5.58143e-05
5.77971e-05
6.04706e-05
6.32006e-05
6.49409e-05
6.39913e-05
5.82711e-05
5.11138e-05
4.87526e-05
5.13602e-05
4.19132e-05
9.73321e-06
7.67618e-07
9.94301e-06
1.99242e-05
2.40771e-05
3.01949e-05
3.48018e-05
3.57399e-05
3.65219e-05
3.77587e-05
3.93034e-05
4.08216e-05
4.21214e-05
4.31899e-05
4.40846e-05
4.48699e-05
4.55941e-05
4.62879e-05
4.6958e-05
4.76273e-05
4.823e-05
4.89273e-05
4.95445e-05
4.99152e-05
5.04884e-05
5.11674e-05
5.18265e-05
5.26606e-05
5.37124e-05
5.5193e-05
5.70693e-05
5.95098e-05
6.17865e-05
6.31493e-05
6.18529e-05
5.65282e-05
4.97028e-05
4.73247e-05
5.1267e-05
4.25181e-05
9.99629e-06
6.22593e-07
8.84907e-06
1.9299e-05
2.26805e-05
2.79685e-05
3.3137e-05
3.53575e-05
3.63858e-05
3.74137e-05
3.86649e-05
3.99915e-05
4.12055e-05
4.22329e-05
4.30902e-05
4.38281e-05
4.44927e-05
4.51301e-05
4.57308e-05
4.63889e-05
4.68954e-05
4.77654e-05
4.82087e-05
4.86811e-05
4.94202e-05
5.01451e-05
5.08872e-05
5.18061e-05
5.2865e-05
5.43058e-05
5.59208e-05
5.79716e-05
5.95572e-05
6.0389e-05
5.86106e-05
5.3794e-05
4.77589e-05
4.59638e-05
5.0921e-05
4.27452e-05
1.02509e-05
4.90124e-07
8.06046e-06
1.88112e-05
2.22139e-05
2.62712e-05
3.12888e-05
3.46752e-05
3.61545e-05
3.72474e-05
3.83109e-05
3.9411e-05
4.04661e-05
4.14018e-05
4.22016e-05
4.28943e-05
4.35099e-05
4.411e-05
4.46544e-05
4.52996e-05
4.57567e-05
4.66652e-05
4.70135e-05
4.75546e-05
4.83308e-05
4.90421e-05
4.97628e-05
5.06559e-05
5.15643e-05
5.28076e-05
5.39382e-05
5.54185e-05
5.60921e-05
5.63172e-05
5.40677e-05
5.00081e-05
4.52397e-05
4.46375e-05
5.02409e-05
4.22699e-05
1.05087e-05
4.22478e-07
7.88365e-06
1.81142e-05
2.23675e-05
2.46355e-05
2.93557e-05
3.3677e-05
3.61733e-05
3.75632e-05
3.86658e-05
3.96433e-05
4.05327e-05
4.132e-05
4.1994e-05
4.25785e-05
4.30782e-05
4.35741e-05
4.39913e-05
4.45455e-05
4.48681e-05
4.5668e-05
4.59673e-05
4.63741e-05
4.70058e-05
4.75977e-05
4.81166e-05
4.87979e-05
4.93194e-05
5.01446e-05
5.05347e-05
5.12947e-05
5.09627e-05
5.06765e-05
4.82302e-05
4.53567e-05
4.20365e-05
4.27586e-05
4.93582e-05
4.17303e-05
1.06732e-05
4.38034e-07
8.72097e-06
1.7354e-05
2.24392e-05
2.48458e-05
2.79736e-05
3.1976e-05
3.56052e-05
3.79149e-05
3.92296e-05
4.02095e-05
4.09772e-05
4.15993e-05
4.21029e-05
4.25277e-05
4.28929e-05
4.32504e-05
4.35617e-05
4.38679e-05
4.40886e-05
4.43308e-05
4.46549e-05
4.47527e-05
4.49167e-05
4.52064e-05
4.52883e-05
4.55162e-05
4.5404e-05
4.56031e-05
4.51309e-05
4.5196e-05
4.41084e-05
4.36889e-05
4.16753e-05
4.04788e-05
3.93424e-05
4.17885e-05
4.8287e-05
4.10146e-05
1.07315e-05
6.24434e-07
1.11674e-05
1.79817e-05
2.2934e-05
2.57649e-05
2.87873e-05
3.20457e-05
3.53434e-05
3.85052e-05
4.08822e-05
4.21755e-05
4.30475e-05
4.36284e-05
4.40182e-05
4.42404e-05
4.41958e-05
4.4005e-05
4.36869e-05
4.33697e-05
4.29342e-05
4.26116e-05
4.20526e-05
4.17134e-05
4.14289e-05
4.1025e-05
4.04858e-05
4.01107e-05
3.9369e-05
3.89865e-05
3.80209e-05
3.78037e-05
3.6748e-05
3.68448e-05
3.60709e-05
3.67567e-05
3.81458e-05
4.17774e-05
4.66109e-05
3.87588e-05
1.0662e-05
1.0138e-06
1.50009e-05
2.03435e-05
2.44901e-05
2.77099e-05
3.09411e-05
3.43628e-05
3.70418e-05
3.97907e-05
4.2384e-05
4.4382e-05
4.53098e-05
4.56313e-05
4.54603e-05
4.49391e-05
4.41676e-05
4.32192e-05
4.20951e-05
4.10078e-05
3.98628e-05
3.89613e-05
3.77181e-05
3.70113e-05
3.61758e-05
3.51546e-05
3.42448e-05
3.36608e-05
3.29477e-05
3.26213e-05
3.21477e-05
3.24027e-05
3.23309e-05
3.34861e-05
3.42192e-05
3.67296e-05
3.91004e-05
4.38025e-05
4.44301e-05
3.68322e-05
1.03262e-05
1.68454e-06
1.94005e-05
2.28642e-05
2.71185e-05
3.07751e-05
3.40044e-05
3.70103e-05
3.92534e-05
4.03012e-05
4.16184e-05
4.25976e-05
4.28173e-05
4.26086e-05
4.20438e-05
4.12654e-05
4.02864e-05
3.92205e-05
3.82038e-05
3.69886e-05
3.57636e-05
3.49941e-05
3.40368e-05
3.30664e-05
3.24456e-05
3.19385e-05
3.1684e-05
3.16206e-05
3.17748e-05
3.23148e-05
3.29332e-05
3.4047e-05
3.50919e-05
3.71354e-05
3.87422e-05
4.18958e-05
4.40473e-05
4.64124e-05
4.26444e-05
3.32984e-05
9.70525e-06
2.79333e-06
2.29356e-05
2.57442e-05
3.02622e-05
3.34889e-05
3.58764e-05
3.76827e-05
3.88334e-05
3.91276e-05
3.95023e-05
3.973e-05
3.97445e-05
3.96044e-05
3.92898e-05
3.89767e-05
3.83969e-05
3.81515e-05
3.77903e-05
3.73773e-05
3.71049e-05
3.68905e-05
3.68921e-05
3.69213e-05
3.71926e-05
3.74902e-05
3.8056e-05
3.86541e-05
3.94839e-05
4.04643e-05
4.14597e-05
4.29041e-05
4.39323e-05
4.59279e-05
4.64929e-05
4.91038e-05
4.79197e-05
4.62947e-05
4.02117e-05
2.51608e-05
8.45625e-06
1.89542e-06
2.91327e-06
3.77366e-06
4.65353e-06
5.4613e-06
6.18834e-06
6.8111e-06
7.31372e-06
7.66987e-06
7.89236e-06
8.0314e-06
8.07334e-06
8.05729e-06
8.01047e-06
7.92408e-06
7.81419e-06
7.69435e-06
7.57837e-06
7.4567e-06
7.34939e-06
7.24391e-06
7.15979e-06
7.08221e-06
7.02944e-06
6.98738e-06
6.973e-06
6.98022e-06
7.00289e-06
7.06034e-06
7.12007e-06
7.24552e-06
7.35362e-06
7.59814e-06
7.79061e-06
8.21965e-06
8.49734e-06
8.96631e-06
9.00768e-06
8.7032e-06
7.27005e-06
)
;

boundaryField
{
    movingWall
    {
        type            nutkWallFunction;
        Cmu             0.09;
        kappa           0.41;
        E               9.8;
        value           uniform 0;
    }
    fixedWalls
    {
        type            nutkWallFunction;
        Cmu             0.09;
        kappa           0.41;
        E               9.8;
        value           uniform 0;
    }
    frontAndBack
    {
        type            empty;
    }
}


// ************************************************************************* //
