/*--------------------------------*- C++ -*----------------------------------*\
  =========                 |
  \\      /  F ield         | OpenFOAM: The Open Source CFD Toolbox
   \\    /   O peration     | Website:  https://openfoam.org
    \\  /    A nd           | Version:  12
     \\/     M anipulation  |
\*---------------------------------------------------------------------------*/
FoamFile
{
    format      ascii;
    class       volScalarField;
    location    "8.5";
    object      p;
}
// * * * * * * * * * * * * * * * * * * * * * * * * * * * * * * * * * * * * * //

dimensions      [0 2 -2 0 0 0 0];

internalField   nonuniform List<scalar> 
1600
(
1.02312e-08
-2.63541e-05
-0.000114831
-0.00023782
-0.00034911
-0.000434766
-0.000513044
-0.000619512
-0.000763155
-0.000944091
-0.00117298
-0.00151167
-0.00193242
-0.00211245
-0.00235674
-0.00296437
-0.00386323
-0.00488428
-0.00585699
-0.00664512
-0.00715061
-0.00730618
-0.00705534
-0.00635172
-0.00523149
-0.00371171
-0.0018013
0.000434395
0.00287367
0.0052923
0.00740542
0.00889794
0.00954639
0.00932242
0.00831355
0.00726735
0.00661113
0.00649898
0.00660386
0.00665376
-1.889e-05
-7.14872e-05
-0.00016982
-0.000287682
-0.000368957
-0.000410077
-0.000449622
-0.000530733
-0.000659956
-0.000809765
-0.000953385
-0.00118588
-0.00162106
-0.00217601
-0.00281579
-0.00362673
-0.00459076
-0.00560899
-0.00655234
-0.00730776
-0.00778924
-0.00793955
-0.00771631
-0.00710005
-0.00606745
-0.00461519
-0.00278273
-0.000628152
0.0017226
0.00409185
0.00622213
0.0078089
0.00860845
0.00854112
0.00773434
0.00671454
0.00619918
0.00626931
0.00645159
0.00653862
-4.79232e-05
-0.000146584
-0.000273473
-0.000384573
-0.000426973
-0.000411907
-0.0004004
-0.000424337
-0.000511921
-0.000726014
-0.00109309
-0.00158643
-0.00223064
-0.00303017
-0.00396319
-0.00497726
-0.00601766
-0.00701382
-0.00788892
-0.0085737
-0.00900706
-0.00913459
-0.00892344
-0.0083565
-0.00740971
-0.00607933
-0.0043939
-0.00240539
-0.000204638
0.00207184
0.0042108
0.00596369
0.00708194
0.00741832
0.00706288
0.00641722
0.00608543
0.00614237
0.0063146
0.00637208
-5.54726e-05
-0.000201059
-0.000367725
-0.000465188
-0.000464259
-0.000416507
-0.000398369
-0.000458435
-0.000652848
-0.00106809
-0.00173352
-0.00258347
-0.00354357
-0.00458557
-0.00568604
-0.00679112
-0.00784648
-0.00880284
-0.00961572
-0.0102407
-0.0106271
-0.0107274
-0.0105184
-0.00998903
-0.0091264
-0.00793193
-0.00642497
-0.00464253
-0.00264506
-0.000522084
0.00157909
0.00347189
0.00494003
0.00582832
0.00616211
0.00614148
0.00614543
0.00617938
0.0062566
0.00625591
8.00083e-05
-0.000133481
-0.000320303
-0.000416891
-0.000429913
-0.000422836
-0.000487209
-0.000713403
-0.00117914
-0.00192562
-0.00291845
-0.00406112
-0.00526465
-0.00647862
-0.00766731
-0.0088002
-0.00984721
-0.0107798
-0.0115526
-0.0121198
-0.0124463
-0.0125174
-0.0123173
-0.0118319
-0.0110568
-0.00999625
-0.00866184
-0.00707626
-0.00528012
-0.00334014
-0.00134832
0.000579017
0.00231463
0.00374742
0.00482677
0.00557693
0.00606671
0.00629716
0.00625294
0.00618172
0.000430524
0.000138737
-7.46314e-05
-0.000213337
-0.000309562
-0.000447103
-0.000736144
-0.00127422
-0.00210578
-0.00320086
-0.00447297
-0.00582364
-0.00718124
-0.00849465
-0.00973535
-0.0108827
-0.0119065
-0.0127766
-0.0134647
-0.0139548
-0.0142297
-0.0142783
-0.0140917
-0.0136544
-0.0129682
-0.0120374
-0.0108702
-0.00947991
-0.00788921
-0.00613427
-0.00426763
-0.00235861
-0.000479897
0.00132647
0.00301505
0.00448848
0.00558182
0.00620218
0.00619002
0.00606785
0.00096833
0.00062017
0.000346099
0.000110735
-0.000155054
-0.000556712
-0.00119633
-0.00212957
-0.00333404
-0.0047294
-0.00621295
-0.00770489
-0.00914903
-0.0105045
-0.0117481
-0.0128596
-0.0138218
-0.0146187
-0.0152367
-0.0156669
-0.0159002
-0.0159297
-0.0157496
-0.0153535
-0.0147421
-0.0139197
-0.0128931
-0.0116719
-0.0102686
-0.00869989
-0.00698759
-0.00515743
-0.00322976
-0.00121478
0.000858513
0.00288448
0.00460303
0.00572564
0.00611877
0.00589105
0.00161675
0.00122542
0.000837294
0.000445032
-7.45887e-05
-0.000829762
-0.00187938
-0.00320726
-0.00473576
-0.00635961
-0.00798914
-0.00956397
-0.0110402
-0.0123906
-0.0135997
-0.0146565
-0.0155542
-0.0162862
-0.0168464
-0.0172298
-0.0174314
-0.0174475
-0.0172749
-0.0169122
-0.0163607
-0.0156243
-0.0147089
-0.0136217
-0.0123697
-0.0109592
-0.00939451
-0.00767479
-0.00578858
-0.00371292
-0.00144269
0.000935152
0.00316938
0.00489859
0.00584904
0.00552898
0.00219659
0.00172601
0.00122022
0.000636449
-0.00018745
-0.00132654
-0.00276666
-0.00443288
-0.00620736
-0.00798826
-0.00970615
-0.0113159
-0.0127874
-0.0141066
-0.0152675
-0.0162677
-0.0171068
-0.0177837
-0.0182967
-0.0186437
-0.0188225
-0.0188312
-0.0186684
-0.0183346
-0.0178317
-0.0171636
-0.0163357
-0.0153535
-0.0142215
-0.0129403
-0.0115046
-0.00989941
-0.00809764
-0.0060582
-0.00374177
-0.00117985
0.00141925
0.00368467
0.00513406
0.00523497
0.00252814
0.00198825
0.00135467
0.000558909
-0.000574541
-0.00206604
-0.00382872
-0.0057421
-0.00768229
-0.00955688
-0.0113147
-0.0129238
-0.0143684
-0.0156451
-0.0167554
-0.0177032
-0.0184921
-0.0191242
-0.0196006
-0.0199209
-0.0200846
-0.0200911
-0.0199398
-0.0196317
-0.019169
-0.0185554
-0.0177957
-0.0168947
-0.015856
-0.0146785
-0.0133536
-0.0118612
-0.0101674
-0.0082227
-0.00596397
-0.0033662
-0.000585653
0.00202067
0.00401136
0.00507871
0.0024991
0.00190425
0.0011488
0.000151914
-0.00125626
-0.003024
-0.00501913
-0.00708729
-0.00912082
-0.0110345
-0.0127939
-0.0143782
-0.0157834
-0.0170136
-0.018076
-0.0189781
-0.0197258
-0.0203232
-0.0207725
-0.0210748
-0.02123
-0.0212383
-0.0210997
-0.0208152
-0.0203869
-0.019818
-0.0191127
-0.0182756
-0.0173098
-0.0162147
-0.0149824
-0.0135935
-0.0120147
-0.0101965
-0.00806813
-0.00556071
-0.00275438
-1.46743e-05
0.00234938
0.00397534
0.00208019
0.00144228
0.000582254
-0.00058168
-0.00219437
-0.00415184
-0.00628036
-0.00843054
-0.0104943
-0.0124041
-0.014137
-0.0156811
-0.0170409
-0.0182252
-0.0192443
-0.0201078
-0.0208227
-0.0213938
-0.0218239
-0.0221145
-0.0222661
-0.022279
-0.0221537
-0.0218911
-0.0214929
-0.0209619
-0.0203017
-0.0195166
-0.0186099
-0.0175824
-0.0164287
-0.0151334
-0.0136673
-0.0119858
-0.010024
-0.00769486
-0.00498616
-0.00227098
0.000134715
0.00184368
0.00129805
0.00063697
-0.000296347
-0.00158415
-0.00332161
-0.00538241
-0.0075617
-0.00973185
-0.0117797
-0.0136554
-0.0153435
-0.0168391
-0.0181517
-0.0192926
-0.0202738
-0.0211052
-0.021794
-0.0223452
-0.0227617
-0.0230451
-0.0231962
-0.0232154
-0.0231033
-0.0228608
-0.0224894
-0.0219914
-0.02137
-0.0206289
-0.019772
-0.0188017
-0.017716
-0.016505
-0.0151463
-0.0136026
-0.0118189
-0.00971298
-0.00722127
-0.00462068
-0.00239321
-0.000833365
0.000235205
-0.000426209
-0.00139836
-0.00276046
-0.00455895
-0.0066432
-0.00881562
-0.0109583
-0.0129587
-0.0147815
-0.0164148
-0.0178587
-0.0191251
-0.0202264
-0.0211745
-0.0219791
-0.0226471
-0.023183
-0.0235896
-0.0238686
-0.0240209
-0.0240469
-0.0239475
-0.0237235
-0.0233761
-0.0229073
-0.0223199
-0.0216174
-0.0208041
-0.0198838
-0.0188583
-0.0177234
-0.0164647
-0.0150537
-0.0134456
-0.0115754
-0.00937055
-0.00695795
-0.00500023
-0.00368121
-0.000994572
-0.00164156
-0.00262411
-0.00401042
-0.00581304
-0.00786629
-0.00999941
-0.0120825
-0.0140173
-0.0157772
-0.017352
-0.0187448
-0.019968
-0.0210336
-0.0219531
-0.0227352
-0.0233861
-0.0239098
-0.0243091
-0.0245853
-0.0247395
-0.0247724
-0.0246846
-0.0244771
-0.0241511
-0.0237082
-0.023151
-0.0224828
-0.0217083
-0.0208327
-0.0198607
-0.0187939
-0.0176257
-0.0163377
-0.0148963
-0.0132534
-0.0113414
-0.00919452
-0.00749892
-0.00641537
-0.00227894
-0.00289742
-0.00386963
-0.00524179
-0.00700926
-0.00900209
-0.0110731
-0.0130812
-0.0149437
-0.0166383
-0.0181557
-0.0195005
-0.0206843
-0.0217185
-0.0226132
-0.0233763
-0.0240131
-0.0245271
-0.0249205
-0.0251949
-0.0253512
-0.0253902
-0.0253127
-0.0251197
-0.0248124
-0.0243922
-0.0238616
-0.0232238
-0.0224838
-0.021648
-0.0207237
-0.019717
-0.0186289
-0.01745
-0.0161573
-0.0147127
-0.0130672
-0.0112487
-0.0097935
-0.00888076
-0.00351175
-0.00409486
-0.00503981
-0.00637917
-0.00809075
-0.01001
-0.012007
-0.0139367
-0.0157281
-0.0173604
-0.0188251
-0.0201268
-0.0212761
-0.0222831
-0.0231569
-0.023904
-0.024529
-0.025035
-0.0254238
-0.0256969
-0.0258551
-0.0258993
-0.0258305
-0.0256497
-0.025358
-0.0249572
-0.0244494
-0.023838
-0.0231282
-0.0223271
-0.0214443
-0.0204897
-0.0194709
-0.0183865
-0.0172211
-0.0159438
-0.0145266
-0.0130124
-0.0117809
-0.0110053
-0.00461373
-0.00515285
-0.0060605
-0.0073603
-0.00901194
-0.0108576
-0.01278
-0.0146358
-0.0163626
-0.0179395
-0.0193584
-0.0206233
-0.0217435
-0.022728
-0.0235844
-0.0243185
-0.0249341
-0.0254336
-0.0258189
-0.0260909
-0.0262506
-0.026299
-0.026237
-0.0260658
-0.0257867
-0.0254014
-0.0249123
-0.0243228
-0.0236382
-0.0228663
-0.0220182
-0.021107
-0.0201454
-0.0191393
-0.0180802
-0.0169441
-0.0157206
-0.0144612
-0.0134253
-0.0127558
-0.0055201
-0.00602121
-0.0068852
-0.00814311
-0.00973884
-0.011521
-0.0133769
-0.0151689
-0.0168408
-0.0183718
-0.0197533
-0.0209887
-0.0220858
-0.0230526
-0.0238956
-0.0246197
-0.0252282
-0.025723
-0.0261056
-0.0263769
-0.0265378
-0.0265892
-0.0265321
-0.0263678
-0.0260977
-0.0257238
-0.0252486
-0.0246757
-0.0240106
-0.0232616
-0.0224408
-0.0215637
-0.020647
-0.0197024
-0.0187286
-0.0177101
-0.0166447
-0.0155765
-0.0147071
-0.0141273
-0.00620298
-0.006656
-0.00748278
-0.008705
-0.0102529
-0.011985
-0.0137873
-0.0155283
-0.0171576
-0.0186535
-0.0200072
-0.0212209
-0.0223015
-0.0232558
-0.0240897
-0.0248072
-0.0254111
-0.025903
-0.0262842
-0.0265552
-0.026717
-0.0267702
-0.0267161
-0.0265558
-0.026291
-0.0259239
-0.0254573
-0.024895
-0.0242428
-0.0235094
-0.0227076
-0.0218547
-0.0209701
-0.0200705
-0.0191616
-0.0182364
-0.0172964
-0.0163763
-0.0156369
-0.0151268
-0.00663301
-0.00704555
-0.00784736
-0.00904018
-0.0105467
-0.0122431
-0.0140053
-0.0157092
-0.017309
-0.0187815
-0.0201174
-0.0213174
-0.0223885
-0.0233361
-0.0241654
-0.02488
-0.0254823
-0.0259736
-0.0263547
-0.0266262
-0.0267886
-0.0268427
-0.0267894
-0.0266302
-0.0263669
-0.0260018
-0.025538
-0.0249797
-0.024333
-0.0236069
-0.022815
-0.0219754
-0.0211101
-0.0202397
-0.0193759
-0.01852
-0.0176757
-0.0168655
-0.0162251
-0.015769
-0.00679065
-0.0071869
-0.00798043
-0.00915345
-0.0106252
-0.0122945
-0.0140276
-0.0157092
-0.0172923
-0.0187527
-0.0200805
-0.0212762
-0.0223447
-0.0232916
-0.0241214
-0.0248374
-0.0254415
-0.0259347
-0.0263176
-0.0265904
-0.0267536
-0.0268076
-0.0267535
-0.0265924
-0.0263264
-0.025958
-0.0254907
-0.0249292
-0.0242798
-0.0235523
-0.0227602
-0.021922
-0.0210632
-0.0202065
-0.019369
-0.0185597
-0.0177874
-0.0170608
-0.0164939
-0.0160687
-0.006711
-0.00709746
-0.0078894
-0.00905273
-0.0104987
-0.0121435
-0.0138616
-0.0155314
-0.0171077
-0.0185656
-0.0198945
-0.0210938
-0.0221674
-0.0231201
-0.0239561
-0.0246782
-0.0252879
-0.0257861
-0.026173
-0.0264486
-0.0266129
-0.0266663
-0.0266095
-0.0264438
-0.026171
-0.0257941
-0.0253166
-0.0247436
-0.0240825
-0.0233433
-0.0225403
-0.0216932
-0.0208273
-0.0199686
-0.0191387
-0.0183542
-0.0176316
-0.0169624
-0.0164586
-0.0160397
-0.00643775
-0.00681289
-0.00760239
-0.00876118
-0.0101864
-0.0118015
-0.0135109
-0.0151771
-0.0167542
-0.0182179
-0.0195562
-0.0207672
-0.0218535
-0.022819
-0.0236674
-0.0244009
-0.0250209
-0.0255278
-0.0259214
-0.0262015
-0.0263677
-0.0264202
-0.0263593
-0.0261862
-0.0259027
-0.0255118
-0.0250173
-0.0244248
-0.0237423
-0.0229805
-0.0221549
-0.0212863
-0.0204004
-0.0195248
-0.0186853
-0.0179066
-0.0172145
-0.0165754
-0.0161368
-0.0156934
-0.00601878
-0.00638026
-0.00716002
-0.00830765
-0.00971303
-0.0112927
-0.0129818
-0.0146476
-0.0162314
-0.0177073
-0.0190623
-0.0202926
-0.0213993
-0.0223852
-0.0232528
-0.024004
-0.0246395
-0.0251594
-0.0255632
-0.0258501
-0.0260195
-0.0260709
-0.0260047
-0.0258217
-0.0255237
-0.0251133
-0.024595
-0.0239747
-0.0232607
-0.0224652
-0.0216047
-0.0207011
-0.0197816
-0.0188749
-0.0180106
-0.0172236
-0.0165452
-0.0159025
-0.0155184
-0.0150522
-0.00551735
-0.00585864
-0.0066116
-0.00772765
-0.0091
-0.0106409
-0.0122914
-0.0139495
-0.0155396
-0.0170311
-0.0184085
-0.0196655
-0.0208006
-0.0218148
-0.0227095
-0.0234854
-0.0241426
-0.0246808
-0.0250988
-0.0253954
-0.0255697
-0.0256207
-0.0255483
-0.0253532
-0.0250368
-0.0246018
-0.0240526
-0.0233958
-0.0226404
-0.0217997
-0.0208915
-0.0199394
-0.0189721
-0.0180198
-0.0171169
-0.0163086
-0.0156314
-0.0149594
-0.0146267
-0.014133
-0.00501138
-0.00531642
-0.00601102
-0.00706255
-0.00837325
-0.00985902
-0.0114571
-0.0130911
-0.0146803
-0.0161868
-0.0175904
-0.0188806
-0.0200523
-0.0211036
-0.0220339
-0.0228426
-0.0235289
-0.0240914
-0.0245286
-0.0248388
-0.0250204
-0.025072
-0.0249931
-0.024784
-0.0244458
-0.0239811
-0.0233944
-0.0226926
-0.0218855
-0.0209879
-0.0200193
-0.0190052
-0.0179757
-0.016963
-0.0160065
-0.0151605
-0.0144614
-0.0137625
-0.0135006
-0.0129575
-0.00458121
-0.00481684
-0.00540602
-0.00635162
-0.0075649
-0.00896462
-0.010491
-0.0120798
-0.013655
-0.0151718
-0.0166033
-0.0179324
-0.0191489
-0.0202467
-0.0212223
-0.0220731
-0.0227968
-0.0233911
-0.0238535
-0.0241818
-0.024374
-0.024428
-0.0243428
-0.0241184
-0.0237556
-0.0232568
-0.0226263
-0.0218714
-0.021003
-0.020037
-0.0189953
-0.0179052
-0.0167994
-0.0157115
-0.0146862
-0.0137854
-0.0130473
-0.0123073
-0.0121553
-0.0115175
-0.00428329
-0.00439735
-0.00482958
-0.00562894
-0.00670745
-0.00798219
-0.00940482
-0.0109221
-0.0124657
-0.0139846
-0.0154431
-0.0168158
-0.0180852
-0.0192395
-0.0202712
-0.0211745
-0.0219453
-0.0225798
-0.0230747
-0.0234269
-0.0236338
-0.0236929
-0.0236025
-0.0233623
-0.0229729
-0.0224361
-0.0217564
-0.0209414
-0.0200029
-0.0189582
-0.0178314
-0.0166521
-0.0154554
-0.0142776
-0.0131681
-0.0121946
-0.0113964
-0.010591
-0.0105849
-0.00976946
-0.00410457
-0.00403886
-0.00429981
-0.00492494
-0.00582788
-0.00693426
-0.00821323
-0.00962749
-0.011117
-0.0126258
-0.0141079
-0.0155275
-0.0168576
-0.0180789
-0.0191781
-0.0201456
-0.0209744
-0.021659
-0.0221947
-0.0225777
-0.0228045
-0.0228723
-0.0227792
-0.0225238
-0.0221067
-0.0215296
-0.0207969
-0.0199164
-0.0189006
-0.0177685
-0.016546
-0.0152651
-0.013964
-0.0126814
-0.0114723
-0.0104077
-0.00952999
-0.00865093
-0.00874947
-0.00762853
-0.00389393
-0.00369461
-0.00383207
-0.00426295
-0.0049451
-0.00583774
-0.00693233
-0.00820969
-0.00961939
-0.0111021
-0.0126016
-0.0140694
-0.015467
-0.0167655
-0.0179441
-0.0189881
-0.0198868
-0.0206323
-0.0212183
-0.0216401
-0.0218934
-0.021975
-0.0218827
-0.0216143
-0.0211704
-0.0205525
-0.0197651
-0.018816
-0.0177187
-0.016493
-0.0151668
-0.0137741
-0.0123558
-0.0109539
-0.00962928
-0.00845392
-0.0074778
-0.00651571
-0.00661488
-0.00502655
-0.00358452
-0.00339696
-0.00344217
-0.00365322
-0.00407194
-0.00470726
-0.00557844
-0.00668588
-0.00799002
-0.00942942
-0.0109376
-0.0124527
-0.0139227
-0.0153074
-0.0165768
-0.0177095
-0.0186902
-0.0195079
-0.0201546
-0.0206242
-0.0209118
-0.0210136
-0.020927
-0.0206503
-0.0201826
-0.0195264
-0.0186858
-0.017669
-0.0164896
-0.0151682
-0.0137339
-0.0122217
-0.0106753
-0.00913974
-0.0076827
-0.00637488
-0.0052743
-0.00419269
-0.00417857
-0.00197852
-0.00331934
-0.0031944
-0.00313408
-0.00310168
-0.00321969
-0.00355734
-0.00417019
-0.00507983
-0.00625677
-0.00763727
-0.00914475
-0.0107038
-0.0122485
-0.0137257
-0.0150951
-0.0163272
-0.0174013
-0.0183024
-0.0190202
-0.0195471
-0.0198777
-0.0200078
-0.0199346
-0.0196561
-0.0191708
-0.0184821
-0.0175945
-0.0165155
-0.0152589
-0.0138449
-0.0123027
-0.010667
-0.00898351
-0.00729929
-0.00568897
-0.00421846
-0.00295096
-0.001682
-0.00142086
0.00140498
-0.00312525
-0.00306464
-0.00288935
-0.00260732
-0.00239601
-0.00240174
-0.00272876
-0.00342248
-0.00446
-0.0057722
-0.0072718
-0.00887054
-0.010489
-0.0120612
-0.0135359
-0.0148749
-0.0160509
-0.0170447
-0.0178429
-0.0184364
-0.0188189
-0.0189864
-0.0189356
-0.0186659
-0.018173
-0.0174627
-0.0165393
-0.0154099
-0.0140874
-0.0125902
-0.0109458
-0.00918621
-0.00735713
-0.00550473
-0.00370774
-0.002021
-0.000513957
0.00104267
0.00167645
0.00510863
-0.00292798
-0.00294754
-0.00266119
-0.00213892
-0.001588
-0.00124999
-0.00128411
-0.00175869
-0.00265593
-0.00389974
-0.0053899
-0.00702525
-0.00871429
-0.0103797
-0.0119598
-0.0134077
-0.0146895
-0.0157812
-0.0166664
-0.0173341
-0.0177771
-0.0179907
-0.0179718
-0.0177192
-0.0172372
-0.0165217
-0.0155793
-0.0144175
-0.0130467
-0.0114815
-0.00974531
-0.00786334
-0.00587755
-0.00382512
-0.00178165
0.000220971
0.00210666
0.00412814
0.00532572
0.0095219
-0.00266945
-0.00274976
-0.00238922
-0.00164346
-0.000770923
-0.000113768
0.000122002
-0.000152749
-0.000923365
-0.00210674
-0.00359117
-0.00526321
-0.00701954
-0.00877287
-0.0104529
-0.0120054
-0.0133906
-0.0145798
-0.0155537
-0.0162996
-0.0168091
-0.0170772
-0.0171016
-0.0168816
-0.0164189
-0.015714
-0.0147715
-0.0135977
-0.0121996
-0.0105845
-0.00876938
-0.00676606
-0.00460597
-0.002302
8.92583e-05
0.00258528
0.00511612
0.00797152
0.0102469
0.0160278
-0.00235188
-0.00243949
-0.00200309
-0.00107567
6.56861e-05
0.000971747
0.00141926
0.00130288
0.000632647
-0.000503049
-0.00198312
-0.00368652
-0.00550137
-0.00733189
-0.00910057
-0.0107477
-0.0122282
-0.0135095
-0.0145694
-0.0153933
-0.0159722
-0.0163001
-0.016375
-0.0161962
-0.0157649
-0.0150818
-0.014151
-0.0129793
-0.0115689
-0.00992041
-0.00803939
-0.00591631
-0.00356158
-0.000938863
0.00194049
0.00520364
0.00882503
0.0132882
0.0179994
0.0274655
-0.00212517
-0.00217282
-0.00158256
-0.000457249
0.000857138
0.00195767
0.0025357
0.00251939
0.00191525
0.000809274
-0.000676751
-0.00241443
-0.00428426
-0.00618331
-0.00802781
-0.00975403
-0.0113142
-0.0126724
-0.0138047
-0.0146956
-0.0153351
-0.015717
-0.0158388
-0.0157003
-0.0153031
-0.014648
-0.0137361
-0.0125619
-0.0111375
-0.00946294
-0.00752572
-0.00529045
-0.00273697
0.000251211
0.00374381
0.00808873
0.0133947
0.0208533
0.0305434
0.0469946
-0.00306839
-0.00250843
-0.00143521
1.41968e-05
0.00152981
0.00273903
0.00339347
0.00342585
0.00285503
0.00177077
0.000290598
-0.00146056
-0.00336254
-0.00530925
-0.00721183
-0.00900161
-0.0106263
-0.0120477
-0.0132393
-0.0141847
-0.0148724
-0.0152975
-0.0154564
-0.0153493
-0.0149765
-0.0143398
-0.0134399
-0.0122778
-0.0108518
-0.00914354
-0.00715588
-0.00484372
-0.00213471
0.00113669
0.00524174
0.0108037
0.0184789
0.0307457
0.0485043
0.0750654
-0.00517341
-0.00163523
-2.00324e-05
0.00139061
0.00277782
0.00388417
0.00446581
0.00442864
0.00379905
0.00267309
0.00116615
-0.000609871
-0.00254458
-0.00453444
-0.00648987
-0.00833711
-0.0100192
-0.0114964
-0.0127408
-0.013733
-0.014462
-0.0149214
-0.0151097
-0.0150258
-0.0146716
-0.0140466
-0.0131531
-0.0119875
-0.0105468
-0.00883391
-0.00681719
-0.00453121
-0.00168452
0.00160035
0.00623296
0.0126637
0.0235855
0.0416089
0.0691858
0.104766
)
;

boundaryField
{
    movingWall
    {
        type            zeroGradient;
    }
    fixedWalls
    {
        type            zeroGradient;
    }
    frontAndBack
    {
        type            empty;
    }
}


// ************************************************************************* //
