/*--------------------------------*- C++ -*----------------------------------*\
  =========                 |
  \\      /  F ield         | OpenFOAM: The Open Source CFD Toolbox
   \\    /   O peration     | Website:  https://openfoam.org
    \\  /    A nd           | Version:  12
     \\/     M anipulation  |
\*---------------------------------------------------------------------------*/
FoamFile
{
    format      ascii;
    class       surfaceScalarField;
    location    "8.5";
    object      phi;
}
// * * * * * * * * * * * * * * * * * * * * * * * * * * * * * * * * * * * * * //

dimensions      [0 3 -1 0 0 0 0];

internalField   nonuniform List<scalar> 
3120
(
9.68806e-08
-9.68815e-08
2.37437e-07
-1.40556e-07
3.40194e-07
-1.02757e-07
3.74052e-07
-3.38576e-08
3.62184e-07
1.18673e-08
3.41087e-07
2.10967e-08
3.33175e-07
7.91213e-09
3.28381e-07
4.79435e-09
3.05325e-07
2.30563e-08
2.46982e-07
5.83426e-08
1.31716e-07
1.15266e-07
-8.88045e-08
2.2052e-07
-4.35358e-07
3.46553e-07
-9.40738e-07
5.0538e-07
-1.53881e-06
5.98076e-07
-2.12352e-06
5.8471e-07
-2.65199e-06
5.28465e-07
-3.10445e-06
4.52459e-07
-3.47929e-06
3.74838e-07
-3.77719e-06
2.97905e-07
-4.00046e-06
2.23264e-07
-4.15038e-06
1.49922e-07
-4.22878e-06
7.83981e-08
-4.23122e-06
2.44284e-09
-4.15806e-06
-7.31606e-08
-4.00997e-06
-1.48089e-07
-3.77263e-06
-2.37344e-07
-3.44739e-06
-3.2524e-07
-3.02628e-06
-4.21106e-07
-2.51089e-06
-5.15395e-07
-1.90263e-06
-6.08256e-07
-1.22621e-06
-6.76417e-07
-5.34697e-07
-6.91515e-07
9.50302e-08
-6.29727e-07
5.90875e-07
-4.95845e-07
7.95148e-07
-2.04273e-07
6.80467e-07
1.14681e-07
4.41854e-07
2.38613e-07
1.86576e-07
2.55278e-07
1.86576e-07
1.74155e-07
-2.71037e-07
3.62432e-07
-3.28833e-07
4.77502e-07
-2.17827e-07
5.09149e-07
-6.55048e-08
4.74534e-07
4.64829e-08
3.98479e-07
9.7151e-08
2.91649e-07
1.14742e-07
1.29371e-07
1.67073e-07
-1.32698e-07
2.85125e-07
-5.40373e-07
4.66018e-07
-1.12021e-06
6.95103e-07
-1.83335e-06
9.33661e-07
-2.58214e-06
1.09535e-06
-3.22781e-06
1.15105e-06
-3.73412e-06
1.10438e-06
-4.16673e-06
1.01732e-06
-4.533e-06
8.94738e-07
-4.83786e-06
7.57316e-07
-5.07926e-06
6.1624e-07
-5.2593e-06
4.77938e-07
-5.37806e-06
3.42024e-07
-5.44017e-06
2.12038e-07
-5.44227e-06
8.04995e-08
-5.38754e-06
-5.22907e-08
-5.27234e-06
-1.88356e-07
-5.08891e-06
-3.31524e-07
-4.83842e-06
-4.87831e-07
-4.50799e-06
-6.55671e-07
-4.08923e-06
-8.39866e-07
-3.57978e-06
-1.02485e-06
-2.98513e-06
-1.2029e-06
-2.31288e-06
-1.34866e-06
-1.59066e-06
-1.41373e-06
-8.60421e-07
-1.35997e-06
-2.34221e-07
-1.12204e-06
2.30491e-07
-6.68986e-07
3.84794e-07
-3.96221e-08
3.18684e-07
3.04724e-07
1.49603e-07
4.24359e-07
3.36179e-07
2.09877e-07
-4.80914e-07
3.55531e-07
-4.74486e-07
4.05263e-07
-2.6756e-07
3.75794e-07
-3.60357e-08
2.78156e-07
1.4412e-07
1.05253e-07
2.70054e-07
-1.81767e-07
4.01762e-07
-6.17731e-07
6.03037e-07
-1.21677e-06
8.84161e-07
-1.94011e-06
1.18936e-06
-2.6839e-06
1.43889e-06
-3.33261e-06
1.58238e-06
-3.86505e-06
1.62778e-06
-4.2915e-06
1.5775e-06
-4.6429e-06
1.45578e-06
-4.92614e-06
1.30057e-06
-5.15649e-06
1.12509e-06
-5.3416e-06
9.42431e-07
-5.48557e-06
7.60204e-07
-5.58978e-06
5.82155e-07
-5.65729e-06
4.09529e-07
-5.68411e-06
2.38859e-07
-5.66793e-06
6.43194e-08
-5.61214e-06
-1.08079e-07
-5.51438e-06
-2.86114e-07
-5.37043e-06
-4.75479e-07
-5.17811e-06
-6.80154e-07
-4.93174e-06
-9.02041e-07
-4.62644e-06
-1.14516e-06
-4.24657e-06
-1.40471e-06
-3.78143e-06
-1.66805e-06
-3.22181e-06
-1.90828e-06
-2.57323e-06
-2.06231e-06
-1.86338e-06
-2.06982e-06
-1.14112e-06
-1.8443e-06
-4.92695e-07
-1.31742e-06
-7.71904e-08
-4.55126e-07
3.39815e-08
1.93552e-07
2.34711e-08
4.34869e-07
3.5965e-07
1.74022e-07
-6.54936e-07
2.30394e-07
-5.30858e-07
1.8457e-07
-2.21736e-07
5.83071e-08
9.02269e-08
-1.57373e-07
3.59801e-07
-4.99327e-07
6.12009e-07
-9.96068e-07
8.98502e-07
-1.63427e-06
1.24124e-06
-2.34577e-06
1.59565e-06
-3.03423e-06
1.87783e-06
-3.61914e-06
2.0238e-06
-4.08191e-06
2.04515e-06
-4.43647e-06
1.98234e-06
-4.71047e-06
1.85151e-06
-4.93239e-06
1.67769e-06
-5.10947e-06
1.47765e-06
-5.25361e-06
1.26922e-06
-5.37226e-06
1.06108e-06
-5.46757e-06
8.5551e-07
-5.5348e-06
6.49385e-07
-5.57437e-06
4.49099e-07
-5.58371e-06
2.482e-07
-5.56372e-06
4.43321e-08
-5.51642e-06
-1.55376e-07
-5.43928e-06
-3.63253e-07
-5.32974e-06
-5.85028e-07
-5.18596e-06
-8.23932e-07
-5.00424e-06
-1.08376e-06
-4.78381e-06
-1.36559e-06
-4.51949e-06
-1.66904e-06
-4.20519e-06
-1.98235e-06
-3.8237e-06
-2.28977e-06
-3.33211e-06
-2.5539e-06
-2.71374e-06
-2.68819e-06
-1.98038e-06
-2.57767e-06
-1.19012e-06
-2.10767e-06
-4.61243e-07
-1.184e-06
-1.35487e-07
-1.32204e-07
-2.90818e-08
3.28463e-07
3.30568e-07
8.07215e-08
-7.35658e-07
2.13303e-08
-4.71467e-07
-1.33005e-07
-6.74004e-08
-3.73862e-07
3.31084e-07
-7.26236e-07
7.12175e-07
-1.21249e-06
1.09827e-06
-1.82257e-06
1.50858e-06
-2.49325e-06
1.91192e-06
-3.12952e-06
2.23192e-06
-3.65332e-06
2.40163e-06
-4.05505e-06
2.42552e-06
-4.36415e-06
2.35425e-06
-4.59696e-06
2.21515e-06
-4.77569e-06
2.03024e-06
-4.91791e-06
1.81991e-06
-5.0345e-06
1.59424e-06
-5.12704e-06
1.36176e-06
-5.19297e-06
1.12701e-06
-5.23296e-06
8.95504e-07
-5.25308e-06
6.69497e-07
-5.25491e-06
4.50937e-07
-5.2412e-06
2.34485e-07
-5.21334e-06
1.64777e-08
-5.16827e-06
-2.0045e-07
-5.10482e-06
-4.26703e-07
-5.02352e-06
-6.6633e-07
-4.92381e-06
-9.23638e-07
-4.80433e-06
-1.20325e-06
-4.66161e-06
-1.5083e-06
-4.49102e-06
-1.83963e-06
-4.28275e-06
-2.19062e-06
-4.02878e-06
-2.54374e-06
-3.70998e-06
-2.8727e-06
-3.27961e-06
-3.11857e-06
-2.6745e-06
-3.18278e-06
-1.8831e-06
-2.89908e-06
-9.35947e-07
-2.13115e-06
-2.23176e-07
-8.44975e-07
-1.54309e-08
1.20718e-07
3.15137e-07
-5.46768e-08
-6.80981e-07
-2.29371e-07
-2.96772e-07
-4.86646e-07
1.89874e-07
-8.36735e-07
6.81173e-07
-1.2969e-06
1.17234e-06
-1.85969e-06
1.66105e-06
-2.47573e-06
2.12462e-06
-3.06413e-06
2.50032e-06
-3.54969e-06
2.71747e-06
-3.91171e-06
2.76366e-06
-4.18265e-06
2.69647e-06
-4.38492e-06
2.55652e-06
-4.53358e-06
2.36381e-06
-4.64327e-06
2.13993e-06
-4.72003e-06
1.89667e-06
-4.77057e-06
1.64478e-06
-4.8003e-06
1.3915e-06
-4.81569e-06
1.1424e-06
-4.82089e-06
9.00705e-07
-4.81696e-06
6.65561e-07
-4.80199e-06
4.35968e-07
-4.7766e-06
2.09102e-07
-4.74246e-06
-1.7662e-08
-4.69632e-06
-2.46596e-07
-4.63994e-06
-4.83082e-07
-4.57457e-06
-7.31696e-07
-4.50116e-06
-9.97055e-07
-4.42044e-06
-1.28397e-06
-4.33207e-06
-1.59667e-06
-4.23396e-06
-1.93775e-06
-4.11909e-06
-2.30548e-06
-3.97254e-06
-2.69028e-06
-3.77687e-06
-3.06837e-06
-3.50218e-06
-3.39326e-06
-3.09037e-06
-3.59458e-06
-2.44924e-06
-3.54021e-06
-1.53267e-06
-3.04772e-06
-4.98542e-07
-1.87911e-06
-3.36139e-08
-3.4421e-07
2.81523e-07
-1.823e-07
-4.98681e-07
-4.72333e-07
-6.73941e-09
-8.2098e-07
5.38522e-07
-1.25677e-06
1.11696e-06
-1.77489e-06
1.69046e-06
-2.33911e-06
2.22528e-06
-2.88647e-06
2.67198e-06
-3.34664e-06
2.96049e-06
-3.68463e-06
3.05547e-06
-3.92687e-06
3.0059e-06
-4.1019e-06
2.8715e-06
-4.22228e-06
2.67689e-06
-4.3022e-06
2.44372e-06
-4.35122e-06
2.18895e-06
-4.37758e-06
1.92303e-06
-4.38865e-06
1.65586e-06
-4.38974e-06
1.39258e-06
-4.38386e-06
1.13652e-06
-4.37146e-06
8.88312e-07
-4.35272e-06
6.46812e-07
-4.32726e-06
4.10512e-07
-4.29507e-06
1.76907e-07
-4.25639e-06
-5.6337e-08
-4.21054e-06
-2.9245e-07
-4.15842e-06
-5.35202e-07
-4.1015e-06
-7.88611e-07
-4.04153e-06
-1.05703e-06
-3.98043e-06
-1.34506e-06
-3.91978e-06
-1.65732e-06
-3.8599e-06
-1.99763e-06
-3.79786e-06
-2.36753e-06
-3.72504e-06
-2.76311e-06
-3.62359e-06
-3.16981e-06
-3.46135e-06
-3.5555e-06
-3.19521e-06
-3.86072e-06
-2.74994e-06
-3.98547e-06
-2.03418e-06
-3.76347e-06
-9.59778e-07
-2.95351e-06
-1.17435e-07
-1.18655e-06
1.64088e-07
-2.96295e-07
-2.02386e-07
-6.65395e-07
3.6236e-07
-1.09278e-06
9.65908e-07
-1.57762e-06
1.6018e-06
-2.10031e-06
2.21315e-06
-2.61611e-06
2.74108e-06
-3.06439e-06
3.12026e-06
-3.39683e-06
3.29293e-06
-3.62435e-06
3.28299e-06
-3.78235e-06
3.16389e-06
-3.88626e-06
2.97541e-06
-3.94838e-06
2.73902e-06
-3.98093e-06
2.47628e-06
-3.9926e-06
2.20062e-06
-3.99137e-06
1.9218e-06
-3.98246e-06
1.64695e-06
-3.96895e-06
1.37907e-06
-3.95195e-06
1.11952e-06
-3.93137e-06
8.67725e-07
-3.9069e-06
6.22347e-07
-3.87802e-06
3.81628e-07
-3.8443e-06
1.43184e-07
-3.80536e-06
-9.5269e-08
-3.76118e-06
-3.3663e-07
-3.71241e-06
-5.83973e-07
-3.66044e-06
-8.40587e-07
-3.60731e-06
-1.11016e-06
-3.5556e-06
-1.39677e-06
-3.50797e-06
-1.70494e-06
-3.46627e-06
-2.03933e-06
-3.43007e-06
-2.40373e-06
-3.39438e-06
-2.79879e-06
-3.34618e-06
-3.21801e-06
-3.25985e-06
-3.64184e-06
-3.09348e-06
-4.02709e-06
-2.78916e-06
-4.28979e-06
-2.26925e-06
-4.28339e-06
-1.43293e-06
-3.78984e-06
-3.38455e-07
-2.28102e-06
-1.74366e-07
-3.72538e-07
1.70153e-07
-8.09424e-07
7.99246e-07
-1.27655e-06
1.43304e-06
-1.76987e-06
2.09512e-06
-2.26344e-06
2.70672e-06
-2.71187e-06
3.1895e-06
-3.05513e-06
3.46352e-06
-3.28631e-06
3.52411e-06
-3.43945e-06
3.43612e-06
-3.53769e-06
3.26213e-06
-3.59288e-06
3.0306e-06
-3.61764e-06
2.76378e-06
-3.62222e-06
2.48085e-06
-3.61442e-06
2.19283e-06
-3.60032e-06
1.90769e-06
-3.58312e-06
1.62975e-06
-3.56437e-06
1.36032e-06
-3.54429e-06
1.09944e-06
-3.52243e-06
8.45867e-07
-3.49805e-06
5.97962e-07
-3.47025e-06
3.53826e-07
-3.43828e-06
1.11222e-07
-3.4015e-06
-1.32052e-07
-3.35982e-06
-3.78313e-07
-3.31369e-06
-6.30101e-07
-3.26429e-06
-8.89987e-07
-3.21359e-06
-1.16086e-06
-3.16434e-06
-1.44602e-06
-3.11982e-06
-1.74946e-06
-3.08319e-06
-2.07596e-06
-3.05616e-06
-2.43076e-06
-3.03673e-06
-2.81822e-06
-3.01594e-06
-3.2388e-06
-2.97399e-06
-3.68379e-06
-2.87559e-06
-4.12548e-06
-2.66995e-06
-4.49543e-06
-2.30728e-06
-4.64606e-06
-1.70394e-06
-4.39318e-06
-6.35409e-07
-3.34955e-06
-8.09776e-07
-4.17266e-07
5.87418e-07
-8.88531e-07
1.27051e-06
-1.36712e-06
1.91163e-06
-1.84413e-06
2.57213e-06
-2.29366e-06
3.15625e-06
-2.66e-06
3.55585e-06
-2.91136e-06
3.71487e-06
-3.07571e-06
3.68846e-06
-3.17856e-06
3.53897e-06
-3.23663e-06
3.32021e-06
-3.26165e-06
3.05562e-06
-3.26535e-06
2.76748e-06
-3.2563e-06
2.4718e-06
-3.24085e-06
2.17737e-06
-3.22309e-06
1.88994e-06
-3.20488e-06
1.61154e-06
-3.1868e-06
1.34225e-06
-3.1685e-06
1.08114e-06
-3.14917e-06
8.26539e-07
-3.12779e-06
5.76574e-07
-3.10328e-06
3.29316e-07
-3.07478e-06
8.2721e-08
-3.04155e-06
-1.65275e-07
-3.00335e-06
-4.1652e-07
-2.96038e-06
-6.73071e-07
-2.91345e-06
-9.36915e-07
-2.86412e-06
-1.21019e-06
-2.81477e-06
-1.49537e-06
-2.76858e-06
-1.79565e-06
-2.72922e-06
-2.11533e-06
-2.69982e-06
-2.46015e-06
-2.68111e-06
-2.83694e-06
-2.66831e-06
-3.2516e-06
-2.64758e-06
-3.70452e-06
-2.59078e-06
-4.18229e-06
-2.44882e-06
-4.63739e-06
-2.17304e-06
-4.92184e-06
-1.69943e-06
-4.86678e-06
-9.07106e-07
-4.14188e-06
-1.71688e-06
-4.34748e-07
1.02217e-06
-9.10187e-07
1.74595e-06
-1.37634e-06
2.37778e-06
-1.82023e-06
3.01602e-06
-2.21246e-06
3.54848e-06
-2.49683e-06
3.84021e-06
-2.6871e-06
3.90514e-06
-2.80681e-06
3.80818e-06
-2.87613e-06
3.60828e-06
-2.90945e-06
3.35353e-06
-2.91803e-06
3.0642e-06
-2.91218e-06
2.76163e-06
-2.89885e-06
2.45847e-06
-2.88283e-06
2.16135e-06
-2.8667e-06
1.87381e-06
-2.85139e-06
1.59622e-06
-2.83684e-06
1.3277e-06
-2.82233e-06
1.06663e-06
-2.80687e-06
8.11079e-07
-2.78937e-06
5.59072e-07
-2.76878e-06
3.08725e-07
-2.74425e-06
5.81968e-08
-2.71514e-06
-1.94386e-07
-2.68105e-06
-4.5061e-07
-2.642e-06
-7.12125e-07
-2.5984e-06
-9.80507e-07
-2.55129e-06
-1.2573e-06
-2.50241e-06
-1.54425e-06
-2.45438e-06
-1.84368e-06
-2.41061e-06
-2.15909e-06
-2.37479e-06
-2.49598e-06
-2.3494e-06
-2.86232e-06
-2.33316e-06
-3.26784e-06
-2.31753e-06
-3.72015e-06
-2.2821e-06
-4.21773e-06
-2.18453e-06
-4.73496e-06
-1.95658e-06
-5.14979e-06
-1.57328e-06
-5.25008e-06
-9.58779e-07
-4.75638e-06
-2.67566e-06
-4.24354e-07
1.44652e-06
-8.82434e-07
2.20403e-06
-1.31883e-06
2.81418e-06
-1.72055e-06
3.41773e-06
-2.04743e-06
3.87536e-06
-2.27094e-06
4.06373e-06
-2.41976e-06
4.05396e-06
-2.50787e-06
3.89629e-06
-2.55594e-06
3.65635e-06
-2.57544e-06
3.37303e-06
-2.57687e-06
3.06563e-06
-2.56875e-06
2.75352e-06
-2.55652e-06
2.44623e-06
-2.5436e-06
2.14843e-06
-2.5315e-06
1.86171e-06
-2.52052e-06
1.58524e-06
-2.51023e-06
1.3174e-06
-2.49975e-06
1.05615e-06
-2.48809e-06
7.9942e-07
-2.47427e-06
5.45252e-07
-2.4574e-06
2.91857e-07
-2.43676e-06
3.75592e-08
-2.41181e-06
-2.19334e-07
-2.38214e-06
-4.80285e-07
-2.34758e-06
-7.46683e-07
-2.30824e-06
-1.01984e-06
-2.26462e-06
-1.30092e-06
-2.21777e-06
-1.59111e-06
-2.1695e-06
-1.89195e-06
-2.12258e-06
-2.20602e-06
-2.08053e-06
-2.53803e-06
-2.04679e-06
-2.89606e-06
-2.02259e-06
-3.29203e-06
-2.00351e-06
-3.73923e-06
-1.9757e-06
-4.24553e-06
-1.90866e-06
-4.80201e-06
-1.72365e-06
-5.33479e-06
-1.40722e-06
-5.56651e-06
-8.58251e-07
-5.30535e-06
-3.53391e-06
-3.93336e-07
1.83986e-06
-8.18432e-07
2.62913e-06
-1.21538e-06
3.21113e-06
-1.56839e-06
3.77074e-06
-1.83132e-06
4.13829e-06
-2.01267e-06
4.24509e-06
-2.12955e-06
4.17085e-06
-2.19749e-06
3.96423e-06
-2.23293e-06
3.69179e-06
-2.24591e-06
3.38601e-06
-2.24582e-06
3.06554e-06
-2.23941e-06
2.74711e-06
-2.2308e-06
2.43762e-06
-2.22233e-06
2.13996e-06
-2.2148e-06
1.85418e-06
-2.20812e-06
1.57856e-06
-2.20167e-06
1.31096e-06
-2.19464e-06
1.04912e-06
-2.18616e-06
7.90948e-07
-2.17548e-06
5.34565e-07
-2.1619e-06
2.78282e-07
-2.14488e-06
2.05405e-08
-2.124e-06
-2.40222e-07
-2.09886e-06
-5.05419e-07
-2.06922e-06
-7.76329e-07
-2.03492e-06
-1.05414e-06
-1.99604e-06
-1.3398e-06
-1.953e-06
-1.63415e-06
-1.90683e-06
-1.93812e-06
-1.85941e-06
-2.25344e-06
-1.81366e-06
-2.58377e-06
-1.77322e-06
-2.9365e-06
-1.74087e-06
-3.32438e-06
-1.71521e-06
-3.76489e-06
-1.68682e-06
-4.27393e-06
-1.63332e-06
-4.8555e-06
-1.4951e-06
-5.47301e-06
-1.21748e-06
-5.84413e-06
-7.52434e-07
-5.7704e-06
-4.28635e-06
-3.48455e-07
2.18831e-06
-7.30404e-07
3.01108e-06
-1.08068e-06
3.56141e-06
-1.37943e-06
4.06949e-06
-1.58956e-06
4.34842e-06
-1.73875e-06
4.39428e-06
-1.83279e-06
4.26488e-06
-1.88738e-06
4.01882e-06
-1.91574e-06
3.72015e-06
-1.9266e-06
3.39687e-06
-1.92794e-06
3.06688e-06
-1.92493e-06
2.7441e-06
-1.92064e-06
2.43333e-06
-1.91659e-06
2.13592e-06
-1.91314e-06
1.85073e-06
-1.91001e-06
1.57543e-06
-1.90661e-06
1.30756e-06
-1.90225e-06
1.04476e-06
-1.89631e-06
7.85007e-07
-1.88824e-06
5.2649e-07
-1.87757e-06
2.67615e-07
-1.86392e-06
6.89204e-09
-1.84698e-06
-2.57166e-07
-1.82642e-06
-5.25976e-07
-1.80193e-06
-8.00819e-07
-1.77321e-06
-1.08286e-06
-1.74e-06
-1.37301e-06
-1.70223e-06
-1.67191e-06
-1.66026e-06
-1.98009e-06
-1.61517e-06
-2.29853e-06
-1.5691e-06
-2.62984e-06
-1.52535e-06
-2.98025e-06
-1.48749e-06
-3.36224e-06
-1.45668e-06
-3.7957e-06
-1.42729e-06
-4.30332e-06
-1.38267e-06
-4.90012e-06
-1.28318e-06
-5.57251e-06
-1.03501e-06
-6.09229e-06
-6.39997e-07
-6.16542e-06
-4.92634e-06
-2.9592e-07
2.48423e-06
-6.25889e-07
3.34105e-06
-9.2541e-07
3.86093e-06
-1.16956e-06
4.31364e-06
-1.34079e-06
4.51965e-06
-1.4633e-06
4.51679e-06
-1.53917e-06
4.34075e-06
-1.58435e-06
4.064e-06
-1.60877e-06
3.74456e-06
-1.61972e-06
3.40782e-06
-1.62361e-06
3.07077e-06
-1.62429e-06
2.74478e-06
-1.62397e-06
2.43301e-06
-1.62362e-06
2.13557e-06
-1.62335e-06
1.85046e-06
-1.62286e-06
1.57495e-06
-1.62169e-06
1.30639e-06
-1.61936e-06
1.04243e-06
-1.61544e-06
7.81092e-07
-1.60961e-06
5.20659e-07
-1.6016e-06
2.59598e-07
-1.59115e-06
-3.5534e-09
-1.57806e-06
-2.70252e-07
-1.56208e-06
-5.41955e-07
-1.54289e-06
-8.20018e-07
-1.52007e-06
-1.10568e-06
-1.49318e-06
-1.3999e-06
-1.4618e-06
-1.70329e-06
-1.42575e-06
-2.01614e-06
-1.38542e-06
-2.33886e-06
-1.34224e-06
-2.67303e-06
-1.29893e-06
-3.02356e-06
-1.25929e-06
-3.40189e-06
-1.22599e-06
-3.829e-06
-1.19591e-06
-4.33339e-06
-1.15667e-06
-4.93935e-06
-1.08184e-06
-5.64734e-06
-8.78706e-07
-6.29543e-06
-5.49708e-07
-6.49442e-06
-5.47605e-06
-2.3621e-07
2.72044e-06
-5.11791e-07
3.61663e-06
-7.60846e-07
4.10998e-06
-9.54982e-07
4.50777e-06
-1.09322e-06
4.65789e-06
-1.1912e-06
4.61477e-06
-1.25322e-06
4.40277e-06
-1.29151e-06
4.1023e-06
-1.3136e-06
3.76665e-06
-1.32542e-06
3.41964e-06
-1.33188e-06
3.07722e-06
-1.33572e-06
2.74863e-06
-1.33853e-06
2.43582e-06
-1.34091e-06
2.13795e-06
-1.34288e-06
1.85243e-06
-1.34422e-06
1.57628e-06
-1.34462e-06
1.30679e-06
-1.34382e-06
1.04163e-06
-1.3416e-06
7.78867e-07
-1.33779e-06
5.16851e-07
-1.33228e-06
2.54084e-07
-1.32494e-06
-1.08896e-08
-1.31565e-06
-2.79539e-07
-1.30423e-06
-5.53376e-07
-1.29038e-06
-8.33869e-07
-1.27368e-06
-1.12239e-06
-1.25355e-06
-1.42003e-06
-1.22934e-06
-1.7275e-06
-1.20049e-06
-2.04499e-06
-1.16687e-06
-2.37248e-06
-1.12926e-06
-2.71065e-06
-1.08983e-06
-3.06298e-06
-1.05235e-06
-3.43938e-06
-1.02061e-06
-3.86074e-06
-9.94111e-07
-4.3599e-06
-9.63969e-07
-4.96949e-06
-9.1006e-07
-5.70125e-06
-7.46542e-07
-6.45895e-06
-4.61198e-07
-6.77976e-06
-5.93725e-06
-1.7713e-07
2.89757e-06
-3.95582e-07
3.83508e-06
-5.93538e-07
4.30794e-06
-7.41922e-07
4.65616e-06
-8.49918e-07
4.76589e-06
-9.26563e-07
4.69141e-06
-9.76966e-07
4.45317e-06
-1.00968e-06
4.13501e-06
-1.03005e-06
3.78702e-06
-1.04269e-06
3.43228e-06
-1.05113e-06
3.08567e-06
-1.05729e-06
2.75479e-06
-1.06225e-06
2.44077e-06
-1.06639e-06
2.14209e-06
-1.06976e-06
1.85579e-06
-1.07226e-06
1.57878e-06
-1.07376e-06
1.30829e-06
-1.07416e-06
1.04203e-06
-1.07342e-06
7.78129e-07
-1.07152e-06
5.14951e-07
-1.06845e-06
2.5101e-07
-1.06418e-06
-1.51602e-08
-1.05866e-06
-2.85058e-07
-1.05177e-06
-5.6026e-07
-1.04328e-06
-8.42359e-07
-1.03279e-06
-1.13288e-06
-1.01969e-06
-1.43313e-06
-1.00323e-06
-1.74397e-06
-9.82577e-07
-2.06564e-06
-9.572e-07
-2.39785e-06
-9.27317e-07
-2.74053e-06
-8.94513e-07
-3.09578e-06
-8.6217e-07
-3.47172e-06
-8.3479e-07
-3.88812e-06
-8.14369e-07
-4.38032e-06
-7.9422e-07
-4.98964e-06
-7.5456e-07
-5.74091e-06
-6.39088e-07
-6.57442e-06
-4.01855e-07
-7.01699e-06
-6.3391e-06
-1.13457e-07
3.01103e-06
-2.77903e-07
3.99952e-06
-4.2591e-07
4.45595e-06
-5.33236e-07
4.76348e-06
-6.13745e-07
4.8464e-06
-6.71047e-07
4.74871e-06
-7.10821e-07
4.49295e-06
-7.38337e-07
4.16252e-06
-7.56956e-07
3.80564e-06
-7.69902e-07
3.44522e-06
-7.79533e-07
3.0953e-06
-7.87077e-07
2.76233e-06
-7.93243e-07
2.44694e-06
-7.98321e-07
2.14717e-06
-8.02409e-07
1.85988e-06
-8.0555e-07
1.58192e-06
-8.07782e-07
1.31052e-06
-8.0917e-07
1.04342e-06
-8.09794e-07
7.78753e-07
-8.0974e-07
5.14897e-07
-8.09084e-07
2.50353e-07
-8.07873e-07
-1.63712e-08
-8.06116e-07
-2.86815e-07
-8.03759e-07
-5.62617e-07
-8.0063e-07
-8.45488e-07
-7.96394e-07
-1.13712e-06
-7.90497e-07
-1.43902e-06
-7.82147e-07
-1.75232e-06
-7.70407e-07
-2.07738e-06
-7.54461e-07
-2.4138e-06
-7.34105e-07
-2.76088e-06
-7.104e-07
-3.11949e-06
-6.86293e-07
-3.49583e-06
-6.66505e-07
-3.90791e-06
-6.54813e-07
-4.39201e-06
-6.46791e-07
-4.99766e-06
-6.23414e-07
-5.76429e-06
-5.42634e-07
-6.6552e-06
-3.45156e-07
-7.21447e-06
-6.68426e-06
-5.67397e-08
3.06777e-06
-1.63175e-07
4.10596e-06
-2.61107e-07
4.55388e-06
-3.30933e-07
4.83331e-06
-3.85332e-07
4.9008e-06
-4.24436e-07
4.78782e-06
-4.54009e-07
4.52252e-06
-4.76219e-07
4.18473e-06
-4.92651e-07
3.82208e-06
-5.05206e-07
3.45778e-06
-5.15189e-07
3.10528e-06
-5.23241e-07
2.77039e-06
-5.2981e-07
2.45351e-06
-5.35142e-07
2.1525e-06
-5.39415e-07
1.86416e-06
-5.42806e-07
1.58531e-06
-5.45504e-07
1.31322e-06
-5.47704e-07
1.04562e-06
-5.49595e-07
7.80644e-07
-5.51347e-07
5.16649e-07
-5.531e-07
2.52106e-07
-5.54958e-07
-1.45127e-08
-5.56979e-07
-2.84793e-07
-5.59165e-07
-5.60431e-07
-5.61415e-07
-8.43237e-07
-5.63477e-07
-1.13505e-06
-5.64882e-07
-1.43762e-06
-5.64899e-07
-1.7523e-06
-5.62573e-07
-2.07971e-06
-5.56926e-07
-2.41945e-06
-5.47426e-07
-2.77038e-06
-5.34662e-07
-3.13225e-06
-5.21111e-07
-3.50938e-06
-5.11411e-07
-3.91761e-06
-5.10347e-07
-4.39307e-06
-5.15678e-07
-4.99233e-06
-5.11944e-07
-5.76802e-06
-4.63606e-07
-6.70354e-06
-3.04175e-07
-7.3739e-06
-6.98843e-06
6.21066e-09
3.06156e-06
-4.74648e-08
4.15963e-06
-1.00055e-07
4.60647e-06
-1.35993e-07
4.86925e-06
-1.64484e-07
4.92929e-06
-1.86176e-07
4.80951e-06
-2.05227e-07
4.54157e-06
-2.216e-07
4.2011e-06
-2.35243e-07
3.83572e-06
-2.46658e-07
3.46919e-06
-2.56242e-07
3.11487e-06
-2.64042e-07
2.77819e-06
-2.70372e-07
2.45984e-06
-2.75418e-07
2.15754e-06
-2.79447e-07
1.86819e-06
-2.82768e-07
1.58863e-06
-2.857e-07
1.31615e-06
-2.88556e-07
1.04848e-06
-2.91616e-07
7.83704e-07
-2.95121e-07
5.20154e-07
-2.99268e-07
2.56253e-07
-3.04209e-07
-9.57248e-09
-3.10038e-07
-2.78964e-07
-3.16805e-07
-5.53664e-07
-3.24474e-07
-8.35569e-07
-3.3288e-07
-1.12665e-06
-3.41675e-07
-1.42883e-06
-3.50245e-07
-1.74373e-06
-3.57702e-07
-2.07225e-06
-3.63029e-07
-2.41412e-06
-3.65471e-07
-2.76794e-06
-3.65215e-07
-3.13251e-06
-3.64248e-07
-3.51034e-06
-3.669e-07
-3.91496e-06
-3.78469e-07
-4.3815e-06
-3.98802e-07
-4.972e-06
-4.14611e-07
-5.75221e-06
-3.93327e-07
-6.72482e-06
-2.65746e-07
-7.50149e-06
-7.25418e-06
6.44729e-08
2.99708e-06
6.55437e-08
4.15856e-06
5.58939e-08
4.61612e-06
5.22098e-08
4.87293e-06
4.97966e-08
4.9317e-06
4.47893e-08
4.81452e-06
3.69904e-08
4.54937e-06
2.719e-08
4.21091e-06
1.71186e-08
3.84579e-06
7.64974e-09
3.47866e-06
-6.4968e-10
3.12317e-06
-7.72061e-09
2.78526e-06
-1.33177e-08
2.46544e-06
-1.76609e-08
2.16189e-06
-2.111e-08
1.87163e-06
-2.40928e-08
1.59161e-06
-2.70518e-08
1.31911e-06
-3.04036e-08
1.05183e-06
-3.45159e-08
7.87816e-07
-3.96982e-08
5.25337e-07
-4.61998e-08
2.62755e-07
-5.42225e-08
-1.54978e-09
-6.38924e-08
-2.69294e-07
-7.53e-08
-5.42257e-07
-8.846e-08
-8.22409e-07
-1.03292e-07
-1.11182e-06
-1.19561e-07
-1.41256e-06
-1.36812e-07
-1.72648e-06
-1.54311e-07
-2.05475e-06
-1.71118e-07
-2.39731e-06
-1.86369e-07
-2.75269e-06
-1.99819e-07
-3.11906e-06
-2.13042e-07
-3.49712e-06
-2.2992e-07
-3.89808e-06
-2.55937e-07
-4.35549e-06
-2.92786e-07
-4.93515e-06
-3.29122e-07
-5.71587e-06
-3.35259e-07
-6.71869e-06
-2.3676e-07
-7.59998e-06
-7.49094e-06
1.23385e-07
2.8737e-06
1.76768e-07
4.10518e-06
2.09227e-07
4.58366e-06
2.38783e-07
4.84337e-06
2.63214e-07
4.90727e-06
2.74987e-07
4.80274e-06
2.76376e-07
4.54798e-06
2.72788e-07
4.21449e-06
2.66542e-07
3.85204e-06
2.59446e-07
3.48576e-06
2.52702e-07
3.12991e-06
2.47109e-07
2.79085e-06
2.42769e-07
2.46978e-06
2.39525e-07
2.16513e-06
2.36974e-07
1.87418e-06
2.34595e-07
1.59399e-06
2.31837e-07
1.32187e-06
2.28184e-07
1.05548e-06
2.23181e-07
7.92819e-07
2.16447e-07
5.3207e-07
2.07674e-07
2.71528e-07
1.96627e-07
9.49695e-09
1.83118e-07
-2.55784e-07
1.67029e-07
-5.26169e-07
1.48291e-07
-8.03671e-07
1.26915e-07
-1.09044e-06
1.03032e-07
-1.38867e-06
7.69376e-08
-1.70038e-06
4.91811e-08
-2.02699e-06
2.05953e-08
-2.36873e-06
-7.99049e-09
-2.72411e-06
-3.64112e-08
-3.09064e-06
-6.53554e-08
-3.46818e-06
-9.81938e-08
-3.86524e-06
-1.40373e-07
-4.31331e-06
-1.94742e-07
-4.88078e-06
-2.50873e-07
-5.65974e-06
-2.82035e-07
-6.68752e-06
-2.10236e-07
-7.67178e-06
-7.70118e-06
1.82498e-07
2.6912e-06
2.86784e-07
4.00089e-06
3.58255e-07
4.51219e-06
4.18289e-07
4.78334e-06
4.6844e-07
4.85712e-06
4.99434e-07
4.77175e-06
5.11743e-07
4.53567e-06
5.15692e-07
4.21054e-06
5.14329e-07
3.8534e-06
5.10463e-07
3.48963e-06
5.06071e-07
3.1343e-06
5.0229e-07
2.79463e-06
4.99539e-07
2.47253e-06
4.97705e-07
2.16697e-06
4.9634e-07
1.87555e-06
4.94831e-07
1.5955e-06
4.92524e-07
1.32418e-06
4.888e-07
1.05921e-06
4.83115e-07
7.98504e-07
4.75014e-07
5.40171e-07
4.64122e-07
2.8242e-07
4.50145e-07
2.34741e-08
4.32856e-07
-2.38495e-07
4.12086e-07
-5.05399e-07
3.87717e-07
-7.79301e-07
3.59691e-07
-1.06241e-06
3.28016e-07
-1.357e-06
2.92823e-07
-1.66519e-06
2.54457e-07
-1.98863e-06
2.13499e-07
-2.32777e-06
1.70674e-07
-2.68128e-06
1.26653e-07
-3.04662e-06
8.0867e-08
-3.42239e-06
3.05737e-08
-3.81495e-06
-2.9561e-08
-4.25317e-06
-1.03115e-07
-4.80723e-06
-1.80096e-07
-5.58276e-06
-2.33806e-07
-6.63381e-06
-1.89983e-07
-7.7156e-06
-7.89116e-06
2.39456e-07
2.45174e-06
3.94565e-07
3.84578e-06
5.0417e-07
4.40258e-06
5.94636e-07
4.69287e-06
6.67016e-07
4.78474e-06
7.18424e-07
4.72034e-06
7.44051e-07
4.51005e-06
7.56929e-07
4.19767e-06
7.61608e-07
3.84872e-06
7.61928e-07
3.48931e-06
7.60611e-07
3.13562e-06
7.59274e-07
2.79597e-06
7.58588e-07
2.47321e-06
7.58538e-07
2.16702e-06
7.58673e-07
1.87541e-06
7.5832e-07
1.59586e-06
7.56734e-07
1.32576e-06
7.53201e-07
1.06274e-06
7.47083e-07
8.04622e-07
7.37837e-07
5.49417e-07
7.25017e-07
2.9524e-07
7.08261e-07
4.02304e-08
6.8729e-07
-2.17524e-07
6.61885e-07
-4.79994e-07
6.31861e-07
-7.49277e-07
5.97073e-07
-1.02762e-06
5.57421e-07
-1.31735e-06
5.12906e-07
-1.62067e-06
4.63647e-07
-1.93937e-06
4.09952e-07
-2.27407e-06
3.52406e-07
-2.62373e-06
2.91658e-07
-2.98587e-06
2.27672e-07
-3.3584e-06
1.58375e-07
-3.74565e-06
7.87163e-08
-4.17351e-06
-1.56895e-08
-4.71282e-06
-1.14837e-07
-5.48361e-06
-1.89937e-07
-6.55872e-06
-1.71417e-07
-7.73413e-06
-8.06258e-06
2.94347e-07
2.1574e-06
4.98777e-07
3.64135e-06
6.45201e-07
4.25616e-06
7.64887e-07
4.57319e-06
8.5971e-07
4.68992e-06
9.32576e-07
4.64748e-06
9.74008e-07
4.46861e-06
9.97043e-07
4.17463e-06
1.00905e-06
3.83671e-06
1.01478e-06
3.48357e-06
1.01757e-06
3.13283e-06
1.01948e-06
2.79406e-06
1.02147e-06
2.47122e-06
1.02368e-06
2.1648e-06
1.02572e-06
1.87338e-06
1.02688e-06
1.5947e-06
1.02634e-06
1.3263e-06
1.02332e-06
1.06577e-06
1.01706e-06
8.10879e-07
1.00694e-06
5.59534e-07
9.92435e-07
3.09748e-07
9.73098e-07
5.95673e-08
9.48586e-07
-1.93013e-07
9.18608e-07
-4.50016e-07
8.82909e-07
-7.13578e-07
8.4127e-07
-9.85985e-07
7.93488e-07
-1.26956e-06
7.39369e-07
-1.56656e-06
6.78773e-07
-1.87877e-06
6.11791e-07
-2.20709e-06
5.38802e-07
-2.55074e-06
4.60386e-07
-2.90745e-06
3.76912e-07
-3.27493e-06
2.87086e-07
-3.65582e-06
1.86481e-07
-4.07291e-06
7.04619e-08
-4.5968e-06
-5.2005e-08
-5.36115e-06
-1.49098e-07
-6.46162e-06
-1.56723e-07
-7.7265e-06
-8.2193e-06
3.4487e-07
1.81253e-06
5.96447e-07
3.38978e-06
7.78581e-07
4.07403e-06
9.2594e-07
4.42583e-06
1.04533e-06
4.57053e-06
1.13849e-06
4.55432e-06
1.19941e-06
4.40769e-06
1.23534e-06
4.1387e-06
1.25667e-06
3.81538e-06
1.26949e-06
3.47076e-06
1.27779e-06
3.12453e-06
1.28408e-06
2.78776e-06
1.28965e-06
2.46565e-06
1.29484e-06
2.15961e-06
1.29934e-06
1.86887e-06
1.30248e-06
1.59156e-06
1.30342e-06
1.32536e-06
1.30127e-06
1.06791e-06
1.29523e-06
8.1692e-07
1.28457e-06
5.70192e-07
1.26867e-06
3.25649e-07
1.24701e-06
8.12329e-08
1.21915e-06
-1.65156e-07
1.18472e-06
-4.15587e-07
1.14338e-06
-6.72233e-07
1.0948e-06
-9.37402e-07
1.03864e-06
-1.21341e-06
9.74551e-07
-1.50247e-06
9.0217e-07
-1.80639e-06
8.21257e-07
-2.12618e-06
7.31883e-07
-2.46137e-06
6.3465e-07
-2.81022e-06
5.30292e-07
-3.17057e-06
4.18293e-07
-3.54383e-06
2.95045e-07
-3.94966e-06
1.56525e-07
-4.45828e-06
1.3061e-08
-5.21768e-06
-1.07502e-07
-6.34106e-06
-1.39672e-07
-7.69433e-06
-8.35897e-06
3.86154e-07
1.42637e-06
6.81767e-07
3.09417e-06
8.99553e-07
3.85624e-06
1.07481e-06
4.25057e-06
1.21923e-06
4.42611e-06
1.33353e-06
4.44003e-06
1.41676e-06
4.32445e-06
1.46948e-06
4.08598e-06
1.50325e-06
3.78161e-06
1.52565e-06
3.44836e-06
1.54153e-06
3.10865e-06
1.5539e-06
2.77539e-06
1.5644e-06
2.45516e-06
1.57362e-06
2.15039e-06
1.58143e-06
1.86107e-06
1.58723e-06
1.58576e-06
1.59019e-06
1.3224e-06
1.58941e-06
1.06869e-06
1.58401e-06
8.22317e-07
1.5732e-06
5.81006e-07
1.55625e-06
3.42598e-07
1.53255e-06
1.0493e-07
1.50159e-06
-1.34193e-07
1.46287e-06
-3.76864e-07
1.41593e-06
-6.25292e-07
1.36032e-06
-8.81795e-07
1.29555e-06
-1.14864e-06
1.22106e-06
-1.42798e-06
1.13623e-06
-1.72156e-06
1.04054e-06
-2.0305e-06
9.33815e-07
-2.35464e-06
8.16509e-07
-2.69291e-06
6.89609e-07
-3.04367e-06
5.53532e-07
-3.40775e-06
4.05393e-07
-3.80152e-06
2.41051e-07
-4.29394e-06
6.90022e-08
-5.04563e-06
-7.35079e-08
-6.19855e-06
-1.28663e-07
-7.63918e-06
-8.48763e-06
4.0858e-07
1.01779e-06
7.45544e-07
2.7572e-06
1.00209e-06
3.59969e-06
1.20645e-06
4.04621e-06
1.37579e-06
4.25677e-06
1.51415e-06
4.30167e-06
1.62137e-06
4.21724e-06
1.69543e-06
4.01191e-06
1.74606e-06
3.73099e-06
1.78172e-06
3.41269e-06
1.8082e-06
3.08218e-06
1.82911e-06
2.75448e-06
1.84653e-06
2.43774e-06
1.86136e-06
2.13555e-06
1.87372e-06
1.84871e-06
1.88316e-06
1.57632e-06
1.88893e-06
1.31663e-06
1.89017e-06
1.06746e-06
1.88595e-06
8.26529e-07
1.87545e-06
5.91511e-07
1.85785e-06
3.602e-07
1.83245e-06
1.30327e-07
1.79863e-06
-1.00377e-07
1.75577e-06
-3.34002e-07
1.70326e-06
-5.72786e-07
1.64051e-06
-8.19036e-07
1.5668e-06
-1.07493e-06
1.48136e-06
-1.34254e-06
1.3833e-06
-1.62351e-06
1.27185e-06
-1.91904e-06
1.14652e-06
-2.22932e-06
1.00773e-06
-2.55412e-06
8.5656e-07
-2.89251e-06
6.94272e-07
-3.24546e-06
5.19041e-07
-3.62629e-06
3.27e-07
-4.1019e-06
1.27068e-07
-4.8457e-06
-4.095e-08
-6.03053e-06
-1.1646e-07
-7.56367e-06
-8.60409e-06
3.93472e-07
6.24322e-07
7.77108e-07
2.37357e-06
1.07739e-06
3.29941e-06
1.31337e-06
3.81024e-06
1.5084e-06
4.06174e-06
1.67309e-06
4.13697e-06
1.80723e-06
4.0831e-06
1.90749e-06
3.91165e-06
1.98048e-06
3.658e-06
2.03442e-06
3.35874e-06
2.07575e-06
3.04085e-06
2.10874e-06
2.72149e-06
2.13596e-06
2.41051e-06
2.15874e-06
2.11278e-06
2.17749e-06
1.82996e-06
2.19201e-06
1.5618e-06
2.20172e-06
1.30691e-06
2.20585e-06
1.06333e-06
2.20354e-06
8.28847e-07
2.19391e-06
6.01138e-07
2.17611e-06
3.77999e-07
2.14938e-06
1.5706e-07
2.11294e-06
-6.39431e-08
2.06606e-06
-2.87124e-07
2.00797e-06
-5.14695e-07
1.93786e-06
-7.48923e-07
1.85479e-06
-9.91855e-07
1.75771e-06
-1.24546e-06
1.64549e-06
-1.51128e-06
1.51707e-06
-1.79062e-06
1.37177e-06
-2.08402e-06
1.20991e-06
-2.39226e-06
1.03267e-06
-2.71527e-06
8.42024e-07
-3.05481e-06
6.37382e-07
-3.42165e-06
4.15738e-07
-3.88025e-06
1.85108e-07
-4.61507e-06
-1.66653e-08
-5.82876e-06
-1.1063e-07
-7.4697e-06
-8.71472e-06
3.18949e-07
3.05372e-07
7.69469e-07
1.92305e-06
1.11468e-06
2.9542e-06
1.38562e-06
3.53929e-06
1.60925e-06
3.83811e-06
1.80217e-06
3.94405e-06
1.96667e-06
3.91859e-06
2.09832e-06
3.78e-06
2.20006e-06
3.55627e-06
2.2786e-06
3.2802e-06
2.3404e-06
2.97906e-06
2.39023e-06
2.67166e-06
2.43123e-06
2.36951e-06
2.4652e-06
2.07881e-06
2.49295e-06
1.80221e-06
2.51462e-06
1.54013e-06
2.52991e-06
1.29163e-06
2.53819e-06
1.05505e-06
2.53874e-06
8.28301e-07
2.53072e-06
6.09156e-07
2.51327e-06
3.95444e-07
2.48561e-06
1.84727e-07
2.44675e-06
-2.50835e-08
2.39593e-06
-2.36303e-07
2.33214e-06
-4.5091e-07
2.25436e-06
-6.71137e-07
2.16136e-06
-8.98859e-07
2.05184e-06
-1.13595e-06
1.92436e-06
-1.3838e-06
1.7777e-06
-1.64395e-06
1.61098e-06
-1.9173e-06
1.4245e-06
-2.20577e-06