/*--------------------------------*- C++ -*----------------------------------*\
  =========                 |
  \\      /  F ield         | OpenFOAM: The Open Source CFD Toolbox
   \\    /   O peration     | Website:  https://openfoam.org
    \\  /    A nd           | Version:  12
     \\/     M anipulation  |
\*---------------------------------------------------------------------------*/
FoamFile
{
    format      ascii;
    class       volVectorField;
    location    "8.5";
    object      U;
}
// * * * * * * * * * * * * * * * * * * * * * * * * * * * * * * * * * * * * * //

dimensions      [0 1 -1 0 0 0 0];

internalField   nonuniform List<vector> 
1600
(
(0.00135884 -0.00115842 0)
(0.0067757 -0.00175594 0)
(0.0117916 -0.00140456 0)
(0.0147485 -0.000190938 0)
(0.0149385 0.000388525 0)
(0.0143123 0.000164847 0)
(0.013496 -0.000690051 0)
(0.0133305 -0.00127227 0)
(0.0129377 -0.00125245 0)
(0.0116649 -0.000927576 0)
(0.00879684 -0.000737073 0)
(0.00141527 0.000120263 0)
(-0.00985129 0.0023625 0)
(-0.0224912 0.00845662 0)
(-0.0494832 0.0140813 0)
(-0.0748415 0.0138209 0)
(-0.0976624 0.0126507 0)
(-0.117211 0.0109148 0)
(-0.13341 0.00916597 0)
(-0.146618 0.00742892 0)
(-0.156734 0.00576657 0)
(-0.164112 0.00416073 0)
(-0.168211 0.00268233 0)
(-0.169813 0.00122941 0)
(-0.168686 -0.00116477 0)
(-0.163801 -0.00275537 0)
(-0.156003 -0.00507871 0)
(-0.14406 -0.00691117 0)
(-0.128695 -0.00922948 0)
(-0.10971 -0.0115084 0)
(-0.0872774 -0.0137721 0)
(-0.0621265 -0.015254 0)
(-0.0355105 -0.0155705 0)
(-0.00830021 -0.0141436 0)
(0.0137209 -0.0119674 0)
(0.0300942 -0.00478599 0)
(0.0318181 0.00314562 0)
(0.025342 0.00531842 0)
(0.0122444 0.00469274 0)
(0.00257844 0.00318527 0)
(0.00238097 -0.00673146 0)
(0.0114175 -0.00973578 0)
(0.017115 -0.00692611 0)
(0.0202608 -0.00256566 0)
(0.0203987 0.000670863 0)
(0.0181576 0.00177513 0)
(0.014327 0.00153038 0)
(0.00911075 0.00181185 0)
(0.000930735 0.00337775 0)
(-0.0118438 0.00639861 0)
(-0.0303264 0.0120109 0)
(-0.0579417 0.0212961 0)
(-0.0897715 0.0303908 0)
(-0.117289 0.0363301 0)
(-0.139765 0.0358853 0)
(-0.159214 0.0331143 0)
(-0.175367 0.0290193 0)
(-0.188804 0.0245273 0)
(-0.19951 0.0200228 0)
(-0.207769 0.0156177 0)
(-0.213574 0.0113702 0)
(-0.217094 0.00718787 0)
(-0.218303 0.00304799 0)
(-0.217284 -0.00125183 0)
(-0.21372 -0.00591487 0)
(-0.207718 -0.0107479 0)
(-0.198927 -0.0159064 0)
(-0.187152 -0.0213322 0)
(-0.172063 -0.0270259 0)
(-0.15297 -0.032499 0)
(-0.130854 -0.0376893 0)
(-0.105821 -0.0416281 0)
(-0.0784172 -0.0426312 0)
(-0.0500006 -0.0395336 0)
(-0.0225833 -0.0310102 0)
(0.000781072 -0.0147667 0)
(0.0168204 0.00374142 0)
(0.0170566 0.0117803 0)
(0.0102221 0.014256 0)
(0.00159089 0.0110461 0)
(0.00371112 -0.0154421 0)
(0.0123062 -0.0172915 0)
(0.015554 -0.0111442 0)
(0.0162241 -0.00312493 0)
(0.0140012 0.00267494 0)
(0.00887283 0.00574172 0)
(-0.000165704 0.00796588 0)
(-0.0141042 0.0125938 0)
(-0.0346972 0.0214463 0)
(-0.0623541 0.0334378 0)
(-0.0931526 0.0449591 0)
(-0.121266 0.0519816 0)
(-0.145291 0.055029 0)
(-0.164173 0.0545995 0)
(-0.179727 0.0511492 0)
(-0.192277 0.0461477 0)
(-0.202503 0.0400777 0)
(-0.210722 0.0337474 0)
(-0.21721 0.0273736 0)
(-0.222062 0.0211557 0)
(-0.225505 0.014772 0)
(-0.227319 0.00875732 0)
(-0.227546 0.00265219 0)
(-0.226064 -0.0034931 0)
(-0.222919 -0.00994031 0)
(-0.218023 -0.0168198 0)
(-0.211259 -0.0244258 0)
(-0.202369 -0.0327441 0)
(-0.191245 -0.0419193 0)
(-0.177469 -0.0512458 0)
(-0.160553 -0.0601681 0)
(-0.140152 -0.0672607 0)
(-0.116335 -0.0702891 0)
(-0.0902651 -0.0681053 0)
(-0.0622172 -0.0573751 0)
(-0.0337436 -0.0365657 0)
(-0.00662841 -0.00636082 0)
(0.00161225 0.0118037 0)
(0.0018468 0.0187297 0)
(-0.000261507 0.0147186 0)
(0.00416766 -0.0244152 0)
(0.00880448 -0.0218042 0)
(0.00885022 -0.011341 0)
(0.00562889 -0.000228964 0)
(-0.000633142 0.00842147 0)
(-0.0113937 0.0158501 0)
(-0.0281047 0.0245897 0)
(-0.051058 0.0363649 0)
(-0.078867 0.0501628 0)
(-0.10848 0.0625853 0)
(-0.134943 0.0705912 0)
(-0.155371 0.0733677 0)
(-0.171475 0.0724859 0)
(-0.18367 0.0685305 0)
(-0.193646 0.0627136 0)
(-0.201398 0.0557774 0)
(-0.207726 0.0482206 0)
(-0.212846 0.0402732 0)
(-0.217211 0.0322201 0)
(-0.220469 0.0243413 0)
(-0.222599 0.0168779 0)
(-0.223505 0.00933167 0)
(-0.223279 0.00180795 0)
(-0.221908 -0.00589611 0)
(-0.219397 -0.0138338 0)
(-0.215618 -0.0222374 0)
(-0.210514 -0.0312533 0)
(-0.203954 -0.0410116 0)
(-0.195782 -0.0515551 0)
(-0.185971 -0.0632225 0)
(-0.174353 -0.0753692 0)
(-0.160638 -0.0870968 0)
(-0.144107 -0.0957968 0)
(-0.122592 -0.0973016 0)
(-0.0962781 -0.0881821 0)
(-0.0657128 -0.0657758 0)
(-0.029583 -0.0275368 0)
(-0.00753848 0.0045223 0)
(-0.00238114 0.0165329 0)
(-0.000318165 0.0141894 0)
(0.00238833 -0.0289185 0)
(0.00301804 -0.0215454 0)
(-0.0015735 -0.00687146 0)
(-0.00899869 0.00724831 0)
(-0.0203872 0.0202333 0)
(-0.0369552 0.0332637 0)
(-0.0592819 0.0478886 0)
(-0.0858387 0.0636783 0)
(-0.113222 0.0776277 0)
(-0.137469 0.086666 0)
(-0.155725 0.089643 0)
(-0.169497 0.0884697 0)
(-0.180072 0.0843031 0)
(-0.187972 0.0778975 0)
(-0.194303 0.0702276 0)
(-0.199328 0.0615664 0)
(-0.203602 0.0525913 0)
(-0.206812 0.043673 0)
(-0.208884 0.0349548 0)
(-0.209958 0.026335 0)
(-0.21038 0.0178822 0)
(-0.210112 0.00947232 0)
(-0.209275 0.00107158 0)
(-0.207821 -0.00752268 0)
(-0.205615 -0.0164204 0)
(-0.2027 -0.0258625 0)
(-0.199042 -0.0360199 0)
(-0.194609 -0.0470586 0)
(-0.189312 -0.0590309 0)
(-0.183014 -0.0718366 0)
(-0.175471 -0.0851772 0)
(-0.166279 -0.0983136 0)
(-0.155231 -0.110727 0)
(-0.141173 -0.119017 0)
(-0.121331 -0.117647 0)
(-0.0933019 -0.100377 0)
(-0.0573109 -0.0643567 0)
(-0.0172753 -0.0135948 0)
(-0.002274 0.0109818 0)
(0.000719414 0.0131676 0)
(-0.000705662 -0.0295109 0)
(-0.00480361 -0.0161975 0)
(-0.0134944 0.00166763 0)
(-0.0251733 0.0195404 0)
(-0.0411114 0.0371788 0)
(-0.0617718 0.0551546 0)
(-0.0861989 0.0732311 0)
(-0.111457 0.0891704 0)
(-0.133943 0.100009 0)
(-0.150821 0.103974 0)
(-0.162967 0.102819 0)
(-0.172225 0.0985277 0)
(-0.178954 0.0918151 0)
(-0.183934 0.0835993 0)
(-0.187658 0.0744536 0)
(-0.190125 0.0649087 0)
(-0.191697 0.0552156 0)
(-0.192497 0.0455406 0)
(-0.192855 0.0360419 0)
(-0.192917 0.0267825 0)
(-0.192503 0.0177676 0)
(-0.191708 0.00886563 0)
(-0.190508 -8.20105e-06 0)
(-0.18888 -0.00902746 0)
(-0.186801 -0.0183529 0)
(-0.184348 -0.0281971 0)
(-0.18154 -0.0387584 0)
(-0.178421 -0.0502481 0)
(-0.174999 -0.0628362 0)
(-0.171248 -0.0765871 0)
(-0.167032 -0.0913092 0)
(-0.162009 -0.106405 0)
(-0.155488 -0.120605 0)
(-0.146319 -0.132082 0)
(-0.133042 -0.138201 0)
(-0.112602 -0.131688 0)
(-0.0822003 -0.105027 0)
(-0.0383906 -0.0520498 0)
(-0.00509599 -0.00183446 0)
(0.00167483 0.012432 0)
(-0.00398505 -0.0239042 0)
(-0.0125907 -0.00684623 0)
(-0.0248998 0.0141713 0)
(-0.0402699 0.0357577 0)
(-0.0594871 0.0574348 0)
(-0.0817066 0.0783545 0)
(-0.104949 0.0968394 0)
(-0.126156 0.110213 0)
(-0.14228 0.116261 0)
(-0.153345 0.11586 0)
(-0.161425 0.111741 0)
(-0.167134 0.104974 0)
(-0.170926 0.0964177 0)
(-0.1734 0.0868306 0)
(-0.174821 0.0766333 0)
(-0.175487 0.0662349 0)
(-0.175696 0.0558781 0)
(-0.17556 0.0457397 0)
(-0.175195 0.0358943 0)
(-0.174574 0.0263183 0)
(-0.17368 0.0169672 0)
(-0.172532 0.00773581 0)
(-0.171108 -0.00147319 0)
(-0.169401 -0.010791 0)
(-0.167419 -0.0203892 0)
(-0.165217 -0.0304383 0)
(-0.162852 -0.0411224 0)
(-0.160401 -0.0526355 0)
(-0.15794 -0.0651695 0)
(-0.155519 -0.0788796 0)
(-0.153125 -0.0938062 0)
(-0.150584 -0.109715 0)
(-0.147358 -0.12586 0)
(-0.142333 -0.140559 0)
(-0.133775 -0.151029 0)
(-0.119662 -0.153223 0)
(-0.097517 -0.139332 0)
(-0.0634757 -0.0987842 0)
(-0.0146507 -0.0239859 0)
(0.00265674 0.0113002 0)
(-0.00692873 -0.0142159 0)
(-0.0190187 0.00663043 0)
(-0.0341549 0.0300343 0)
(-0.0524245 0.0546605 0)
(-0.0729981 0.0786889 0)
(-0.0945533 0.100153 0)
(-0.114858 0.116758 0)
(-0.130948 0.125978 0)
(-0.141653 0.127327 0)
(-0.148976 0.123826 0)
(-0.15404 0.117302 0)
(-0.157152 0.108611 0)
(-0.15889 0.0986529 0)
(-0.159674 0.088007 0)
(-0.159797 0.0770799 0)
(-0.159549 0.0662069 0)
(-0.159083 0.0555532 0)
(-0.158465 0.0452146 0)
(-0.157718 0.035191 0)
(-0.156817 0.0254328 0)
(-0.155754 0.0158731 0)
(-0.154503 0.00641823 0)
(-0.153048 -0.00302496 0)
(-0.151375 -0.0125777 0)
(-0.149499 -0.0223788 0)
(-0.147463 -0.0325766 0)
(-0.145335 -0.0433337 0)
(-0.143212 -0.054827 0)
(-0.141203 -0.0672437 0)
(-0.139413 -0.0807591 0)
(-0.137896 -0.0954869 0)
(-0.13658 -0.111384 0)
(-0.135115 -0.12808 0)
(-0.132624 -0.144619 0)
(-0.127585 -0.158936 0)
(-0.118047 -0.167195 0)
(-0.102031 -0.163272 0)
(-0.0765185 -0.136977 0)
(-0.0332668 -0.0680029 0)
(0.000365442 0.000331721 0)
(-0.0086554 -0.00068615 0)
(-0.0236967 0.0232472 0)
(-0.0407566 0.0481467 0)
(-0.0603059 0.0743476 0)
(-0.0807276 0.0989682 0)
(-0.10044 0.119289 0)
(-0.117115 0.132608 0)
(-0.128232 0.136929 0)
(-0.135435 0.134808 0)
(-0.140206 0.128875 0)
(-0.143104 0.120407 0)
(-0.144511 0.110283 0)
(-0.144981 0.099321 0)
(-0.144828 0.0880042 0)
(-0.144335 0.0766931 0)
(-0.143689 0.0656119 0)
(-0.142965 0.0548459 0)
(-0.142192 0.0444219 0)
(-0.141361 0.0343013 0)
(-0.140444 0.0244251 0)
(-0.139409 0.0147208 0)
(-0.138217 0.00509366 0)
(-0.136843 -0.00454316 0)
(-0.135267 -0.0142905 0)
(-0.133499 -0.0242615 0)
(-0.13157 -0.0345723 0)
(-0.129545 -0.0453557 0)
(-0.127521 -0.0567632 0)
(-0.125623 -0.0689731 0)
(-0.123993 -0.0821875 0)
(-0.122744 -0.096604 0)
(-0.121901 -0.112338 0)
(-0.121275 -0.129286 0)
(-0.120246 -0.146893 0)
(-0.117491 -0.16374 0)
(-0.111169 -0.176729 0)
(-0.0996746 -0.18003 0)
(-0.0806729 -0.16544 0)
(-0.0504761 -0.115123 0)
(-0.00700123 -0.0149499 0)
(-0.00966137 0.0151812 0)
(-0.0263892 0.0414687 0)
(-0.0442393 0.0670891 0)
(-0.0639995 0.0936782 0)
(-0.0833541 0.117727 0)
(-0.100791 0.135665 0)
(-0.112903 0.144095 0)
(-0.120903 0.144636 0)
(-0.125798 0.139802 0)
(-0.128821 0.131893 0)
(-0.130305 0.121914 0)
(-0.130719 0.110766 0)
(-0.130524 0.0991526 0)
(-0.129967 0.0874709 0)
(-0.129276 0.0759974 0)
(-0.128549 0.0648545 0)
(-0.127827 0.0540684 0)
(-0.12711 0.0436192 0)
(-0.126369 0.0334477 0)
(-0.125567 0.0234837 0)
(-0.124658 0.0136506 0)
(-0.123605 0.00386262 0)
(-0.122372 -0.00596479 0)
(-0.120941 -0.0159122 0)
(-0.119309 -0.0260707 0)
(-0.117498 -0.0365289 0)
(-0.115554 -0.0473857 0)
(-0.113559 -0.0587569 0)
(-0.111628 -0.0707879 0)
(-0.109905 -0.0836683 0)
(-0.108539 -0.0976332 0)
(-0.107628 -0.11293 0)
(-0.107131 -0.129715 0)
(-0.106696 -0.147859 0)
(-0.105282 -0.166556 0)
(-0.101016 -0.183349 0)
(-0.0925159 -0.192431 0)
(-0.0778094 -0.186963 0)
(-0.0547395 -0.150794 0)
(-0.0158533 -0.0428918 0)
(-0.0100938 0.0322135 0)
(-0.0273343 0.0604047 0)
(-0.0449673 0.0859667 0)
(-0.0640499 0.11207 0)
(-0.0819157 0.134476 0)
(-0.0960085 0.148433 0)
(-0.104783 0.152676 0)
(-0.110917 0.15017 0)
(-0.114189 0.143127 0)
(-0.116114 0.13362 0)
(-0.116763 0.122499 0)
(-0.116698 0.11065 0)
(-0.116248 0.098645 0)
(-0.115618 0.0867943 0)
(-0.114965 0.0752823 0)
(-0.114337 0.0641539 0)
(-0.11375 0.0533919 0)
(-0.113183 0.0429437 0)
(-0.112597 0.0327361 0)
(-0.11195 0.0226922 0)
(-0.111198 0.0127353 0)
(-0.110303 0.00278867 0)
(-0.109232 -0.00722612 0)
(-0.107968 -0.0173762 0)
(-0.1065 -0.0277338 0)
(-0.104839 -0.0383683 0)
(-0.103012 -0.0493511 0)
(-0.101076 -0.0607657 0)
(-0.099121 -0.0727224 0)
(-0.0972716 -0.085382 0)
(-0.0956782 -0.0989792 0)
(-0.0944792 -0.113827 0)
(-0.0937339 -0.130258 0)
(-0.0933019 -0.148459 0)
(-0.0925049 -0.168202 0)
(-0.0896019 -0.188067 0)
(-0.0830425 -0.202048 0)
(-0.0712362 -0.203897 0)
(-0.0511702 -0.180404 0)
(-0.0190614 -0.0930702 0)
(-0.00983578 0.0491709 0)
(-0.0266722 0.0790094 0)
(-0.0434169 0.103942 0)
(-0.0611528 0.128813 0)
(-0.0771888 0.148916 0)
(-0.0877612 0.158318 0)
(-0.0949212 0.159382 0)
(-0.0993805 0.154215 0)
(-0.101677 0.14539 0)
(-0.102933 0.134601 0)
(-0.103168 0.122637 0)
(-0.102952 0.11032 0)
(-0.102494 0.098095 0)
(-0.101967 0.0861869 0)
(-0.101467 0.0746967 0)
(-0.101013 0.0636128 0)
(-0.100601 0.0528843 0)
(-0.1002 0.0424364 0)
(-0.0997703 0.0321883 0)
(-0.0992721 0.0220613 0)
(-0.0986669 0.0119816 0)
(-0.0979219 0.00187995 0)
(-0.0970138 -0.00831448 0)
(-0.0959226 -0.0186618 0)
(-0.0946359 -0.0292208 0)
(-0.0931539 -0.0400476 0)
(-0.0914874 -0.051194 0)
(-0.0896675 -0.0627166 0)
(-0.0877524 -0.0746912 0)
(-0.085836 -0.0872406 0)
(-0.0840492 -0.100575 0)
(-0.0825418 -0.11503 0)
(-0.0814323 -0.131055 0)
(-0.0807137 -0.149083 0)
(-0.0800468 -0.169282 0)
(-0.0780938 -0.191054 0)
(-0.0725207 -0.21032 0)
(-0.0632857 -0.217241 0)
(-0.045989 -0.203316 0)
(-0.0160543 -0.1272 0)
(-0.00907796 0.0654372 0)
(-0.0247918 0.0966843 0)
(-0.0401849 0.120632 0)
(-0.0564398 0.143962 0)
(-0.069831 0.160579 0)
(-0.0779271 0.166294 0)
(-0.0839076 0.164608 0)
(-0.0871817 0.157276 0)
(-0.0889221 0.147007 0)
(-0.0897998 0.135202 0)
(-0.0898959 0.122624 0)
(-0.0897119 0.11 0)
(-0.0893742 0.0976571 0)
(-0.0890229 0.0857452 0)
(-0.0887088 0.0742954 0)
(-0.0884354 0.0632549 0)
(-0.0881868 0.0525473 0)
(-0.08793 0.0420853 0)
(-0.0876308 0.0317857 0)
(-0.0872569 0.0215712 0)
(-0.0867783 0.0113727 0)
(-0.08617 0.00112587 0)
(-0.0854156 -0.0092336 0)
(-0.0844971 -0.0197626 0)
(-0.0834015 -0.030513 0)
(-0.0821218 -0.0415336 0)
(-0.0806553 -0.0528649 0)
(-0.0790116 -0.0645453 0)
(-0.0772194 -0.0766228 0)
(-0.0753377 -0.0891825 0)
(-0.0734654 -0.102394 0)
(-0.0717402 -0.116577 0)
(-0.0703076 -0.132239 0)
(-0.0692433 -0.150017 0)
(-0.0684074 -0.170394 0)
(-0.0669086 -0.193334 0)
(-0.062293 -0.216971 0)
(-0.0547899 -0.228851 0)
(-0.040252 -0.224 0)
(-0.0142049 -0.160884 0)
(-0.00792914 0.0802293 0)
(-0.0221216 0.112868 0)
(-0.035841 0.135631 0)
(-0.0503274 0.157053 0)
(-0.0609311 0.169902 0)
(-0.0674042 0.172876 0)
(-0.0724399 0.168777 0)
(-0.0748827 0.159691 0)
(-0.0763189 0.148252 0)
(-0.0770045 0.135651 0)
(-0.0771169 0.122629 0)
(-0.0770478 0.109798 0)
(-0.0768758 0.0973909 0)
(-0.0767083 0.0854914 0)
(-0.0765668 0.0740751 0)
(-0.0764469 0.0630598 0)
(-0.0763287 0.0523523 0)
(-0.076184 0.0418598 0)
(-0.0759864 0.0314995 0)
(-0.0757129 0.0211977 0)
(-0.0753428 0.0108893 0)
(-0.074859 0.000513542 0)
(-0.0742502 -0.00999008 0)
(-0.0735024 -0.0206775 0)
(-0.0726029 -0.0315991 0)
(-0.0715398 -0.0428009 0)
(-0.0703013 -0.0543187 0)
(-0.0688804 -0.0661802 0)
(-0.0672819 -0.0784135 0)
(-0.0655337 -0.091071 0)
(-0.0637014 -0.104279 0)
(-0.0618979 -0.118313 0)
(-0.0602726 -0.133691 0)
(-0.0589527 -0.151179 0)
(-0.057914 -0.171556 0)
(-0.0566665 -0.195261 0)
(-0.0532744 -0.221352 0)
(-0.0461867 -0.239227 0)
(-0.0350557 -0.239787 0)
(-0.0116382 -0.186368 0)
(-0.00667976 0.0932926 0)
(-0.0189186 0.127188 0)
(-0.030757 0.148627 0)
(-0.0432073 0.167933 0)
(-0.0513327 0.177504 0)
(-0.0569871 0.178336 0)
(-0.0609039 0.172155 0)
(-0.0628282 0.161672 0)
(-0.0640755 0.149291 0)
(-0.0646794 0.136075 0)
(-0.0648752 0.122726 0)
(-0.0649418 0.109748 0)
(-0.064932 0.0972988 0)
(-0.0649226 0.0854059 0)
(-0.0649192 0.0740041 0)
(-0.0649149 0.0629913 0)
(-0.0648917 0.0522643 0)
(-0.0648294 0.041729 0)
(-0.0647101 0.0313047 0)
(-0.0645196 0.0209216 0)
(-0.0642456 0.0105174 0)
(-0.0638779 3.32431e-05 0)
(-0.0634095 -0.0105895 0)
(-0.0628304 -0.0214078 0)
(-0.062129 -0.032474 0)
(-0.0612913 -0.0438353 0)
(-0.0602996 -0.0555282 0)
(-0.0591356 -0.0675762 0)
(-0.057786 -0.0799945 0)
(-0.0562541 -0.0928092 0)
(-0.0545756 -0.106103 0)
(-0.0528354 -0.120101 0)
(-0.0511717 -0.135288 0)
(-0.0497386 -0.152498 0)
(-0.0485849 -0.172778 0)
(-0.0474448 -0.19693 0)
(-0.0449063 -0.224801 0)
(-0.0386244 -0.248586 0)
(-0.0305848 -0.254276 0)
(-0.0101695 -0.210272 0)
(-0.0051478 0.103947 0)
(-0.0153757 0.139345 0)
(-0.0253224 0.159648 0)
(-0.0355945 0.176704 0)
(-0.0417582 0.183713 0)
(-0.0465831 0.182735 0)
(-0.0495841 0.174918 0)
(-0.0511704 0.163341 0)
(-0.0522786 0.150217 0)
(-0.0528568 0.136528 0)
(-0.0531472 0.122933 0)
(-0.0533355 0.109841 0)
(-0.0534585 0.0973532 0)
(-0.053568 0.0854515 0)
(-0.0536631 0.074043 0)
(-0.0537379 0.0630127 0)
(-0.05378 0.0522525 0)
(-0.0537772 0.0416689 0)
(-0.0537201 0.031184 0)
(-0.0536019 0.0207305 0)
(-0.053417 0.0102483 0)
(-0.0531609 -0.000320893 0)
(-0.0528298 -0.0110355 0)
(-0.0524175 -0.0219546 0)
(-0.0519144 -0.0331345 0)
(-0.0513064 -0.0446269 0)
(-0.0505733 -0.0564725 0)
(-0.0496898 -0.0686961 0)
(-0.0486301 -0.0813062 0)
(-0.0473785 -0.0943088 0)
(-0.0459463 -0.107749 0)
(-0.0443924 -0.121793 0)
(-0.0428402 -0.136875 0)
(-0.0414628 -0.15384 0)
(-0.0403761 -0.173929 0)
(-0.0394066 -0.198263 0)
(-0.0375696 -0.227106 0)
(-0.0327978 -0.255613 0)
(-0.0257834 -0.266068 0)
(-0.00853084 -0.229019 0)
(-0.00379292 0.112516 0)
(-0.0117099 0.149353 0)
(-0.01979 0.168686 0)
(-0.0278557 0.18356 0)
(-0.0323751 0.188645 0)
(-0.0363729 0.186231 0)
(-0.0386246 0.177171 0)
(-0.0399535 0.164765 0)
(-0.0409389 0.151069 0)
(-0.0415089 0.137021 0)
(-0.0418755 0.123236 0)
(-0.0421547 0.110048 0)
(-0.0423715 0.0975148 0)
(-0.0425593 0.0855878 0)
(-0.0427162 0.0741547 0)
(-0.0428398 0.0630933 0)
(-0.0429242 0.0522934 0)
(-0.0429651 0.0416631 0)
(-0.04296 0.0311262 0)
(-0.0429082 0.0206176 0)
(-0.0428091 0.0100777 0)
(-0.0426623 -0.000551849 0)
(-0.0424672 -0.0113303 0)
(-0.0422205 -0.0223193 0)
(-0.041915 -0.0335802 0)
(-0.0415384 -0.0451708 0)
(-0.0410706 -0.0571388 0)
(-0.0404834 -0.0695145 0)
(-0.0397438 -0.0823054 0)
(-0.0388225 -0.0955036 0)
(-0.037711 -0.109119 0)
(-0.036444 -0.123264 0)
(-0.0351242 -0.138301 0)
(-0.0339258 -0.155054 0)
(-0.0330101 -0.174899 0)
(-0.0322818 -0.199305 0)
(-0.0310399 -0.228992 0)
(-0.0275363 -0.261239 0)
(-0.0225218 -0.276584 0)
(-0.00741144 -0.24651 0)
(-0.00208574 0.118298 0)
(-0.00797582 0.157048 0)
(-0.0141734 0.175655 0)
(-0.0201648 0.188692 0)
(-0.0233154 0.192423 0)
(-0.0264519 0.188927 0)
(-0.0280696 0.178989 0)
(-0.0291618 0.165978 0)
(-0.030022 0.151856 0)
(-0.0305767 0.13754 0)
(-0.0309879 0.123605 0)
(-0.0313219 0.110329 0)
(-0.0315936 0.0977437 0)
(-0.0318233 0.0857777 0)
(-0.0320114 0.0743083 0)
(-0.0321599 0.0632093 0)
(-0.0322697 0.0523703 0)
(-0.0323431 0.0417005 0)
(-0.0323835 0.0311251 0)
(-0.0323947 0.0205794 0)
(-0.03238 0.0100038 0)
(-0.0323422 -0.000660634 0)
(-0.0322828 -0.0114747 0)
(-0.0322012 -0.0225029 0)
(-0.0320928 -0.0338113 0)
(-0.0319481 -0.0454644 0)
(-0.031749 -0.0575187 0)
(-0.0314683 -0.070013 0)
(-0.0310699 -0.0829589 0)
(-0.0305164 -0.0963404 0)
(-0.0297849 -0.110141 0)
(-0.0288906 -0.124417 0)
(-0.0279168 -0.139458 0)
(-0.0270285 -0.156021 0)
(-0.0264082 -0.175553 0)
(-0.026032 -0.199883 0)
(-0.0254504 -0.2303 0)
(-0.0231828 -0.264814 0)
(-0.0193535 -0.28492 0)
(-0.00625217 -0.260688 0)
(-0.00090388 0.122131 0)
(-0.00431459 0.162549 0)
(-0.0086056 0.180617 0)
(-0.0126248 0.192244 0)
(-0.0146318 0.195167 0)
(-0.0168286 0.190871 0)
(-0.0178961 0.180383 0)
(-0.0187465 0.16698 0)
(-0.0194686 0.152565 0)
(-0.0199865 0.138058 0)
(-0.0204078 0.124005 0)
(-0.0207617 0.110648 0)
(-0.0210532 0.0980042 0)
(-0.0212948 0.0859906 0)
(-0.0214898 0.0744791 0)
(-0.021645 0.0633426 0)
(-0.0217673 0.0524709 0)
(-0.0218647 0.0417737 0)
(-0.0219455 0.0311763 0)
(-0.0220172 0.020614 0)
(-0.0220861 0.0100263 0)
(-0.0221574 -0.000647197 0)
(-0.0222343 -0.0114689 0)
(-0.0223183 -0.0225056 0)
(-0.0224076 -0.033828 0)
(-0.0224955 -0.0455069 0)
(-0.0225675 -0.0576079 0)
(-0.0225996 -0.0701801 0)
(-0.0225567 -0.083243 0)
(-0.022398 -0.0967785 0)
(-0.0220909 -0.110748 0)
(-0.0216337 -0.125162 0)
(-0.0210894 -0.14023 0)
(-0.0206071 -0.156632 0)
(-0.0203803 -0.175829 0)
(-0.0204594 -0.199955 0)
(-0.020574 -0.230852 0)
(-0.019422 -0.267504 0)
(-0.0170876 -0.292153 0)
(-0.0054031 -0.273931 0)
(0.000969403 0.123037 0)
(-0.000653109 0.165823 0)
(-0.00307373 0.183648 0)
(-0.00529574 0.194372 0)
(-0.00624215 0.196841 0)
(-0.00749743 0.192113 0)
(-0.00805308 0.181382 0)
(-0.00864108 0.167769 0)
(-0.00920554 0.153179 0)
(-0.00965943 0.138546 0)
(-0.0100576 0.124403 0)
(-0.0104009 0.110971 0)
(-0.0106839 0.0982669 0)
(-0.0109136 0.0862019 0)
(-0.0110964 0.074648 0)
(-0.0112435 0.063479 0)
(-0.0113674 0.0525852 0)
(-0.0114814 0.0418761 0)
(-0.0115978 0.0312763 0)
(-0.0117271 0.0207199 0)
(-0.0118784 0.0101449 0)
(-0.0120587 -0.000510865 0)
(-0.0122728 -0.0113117 0)
(-0.0125239 -0.0223265 0)
(-0.0128125 -0.0336297 0)
(-0.0131344 -0.0452977 0)
(-0.0134797 -0.0574039 0)
(-0.0138296 -0.0700086 0)
(-0.0141526 -0.0831418 0)
(-0.014409 -0.0967888 0)
(-0.0145617 -0.110897 0)
(-0.014595 -0.125435 0)
(-0.0145524 -0.140537 0)
(-0.0145633 -0.156791 0)
(-0.0148218 -0.175631 0)
(-0.0154491 -0.199447 0)
(-0.0162806 -0.230585 0)
(-0.0161285 -0.268752 0)
(-0.0150043 -0.297679 0)
(-0.00455144 -0.284903 0)
(0.00214456 0.121728 0)
(0.00284882 0.166914 0)
(0.00232973 0.184873 0)
(0.0017904 0.195189 0)
(0.00191147 0.197531 0)
(0.00160676 0.192644 0)
(0.00153459 0.181924 0)
(0.00122746 0.168305 0)
(0.000844472 0.153663 0)
(0.000483414 0.138973 0)
(0.00013525 0.124768 0)
(-0.000171273 0.111273 0)
(-0.000420278 0.0985087 0)
(-0.000618942 0.0863924 0)
(-0.000774209 0.0748 0)
(-0.000901169 0.0636071 0)
(-0.0010175 0.0527047 0)
(-0.00114083 0.0420016 0)
(-0.00128721 0.0314209 0)
(-0.0014704 0.0208946 0)
(-0.00170173 0.0103585 0)
(-0.00199016 -0.000251241 0)
(-0.00234218 -0.0110011 0)
(-0.00276243 -0.0219624 0)
(-0.0032527 -0.0332124 0)
(-0.00381176 -0.0448324 0)
(-0.00443403 -0.056903 0)
(-0.00510515 -0.0694937 0)
(-0.00580039 -0.0826449 0)
(-0.00648728 -0.0963495 0)
(-0.00712702 -0.110549 0)
(-0.00769249 -0.12518 0)
(-0.00820887 -0.140304 0)
(-0.00878381 -0.156417 0)
(-0.00960432 -0.174899 0)
(-0.0108518 -0.198318 0)
(-0.0124585 -0.229566 0)
(-0.013236 -0.269144 0)
(-0.0134583 -0.302285 0)
(-0.00389372 -0.295196 0)
(0.0034125 0.118316 0)
(0.00632444 0.16592 0)
(0.00760863 0.184464 0)
(0.00864636 0.194699 0)
(0.00988475 0.197081 0)
(0.0104773 0.192556 0)
(0.0109138 0.182072 0)
(0.0109317 0.168586 0)
(0.0107567 0.153999 0)
(0.0105152 0.13931 0)
(0.0102467 0.125074 0)
(0.00999964 0.11153 0)
(0.0098002 0.0987111 0)
(0.00964776 0.0865466 0)
(0.00953303 0.0749218 0)
(0.00943715 0.0637159 0)
(0.009338 0.0528207 0)
(0.00921366 0.0421434 0)
(0.00904427 0.0316049 0)
(0.00881295 0.0211345 0)
(0.00850586 0.0106654 0)
(0.00811209 0.000131043 0)
(0.00762327 -0.010537 0)
(0.00703342 -0.0214122 0)
(0.00633901 -0.032574 0)
(0.00553826 -0.0441071 0)
(0.00463417 -0.0560981 0)
(0.00363626 -0.0686247 0)
(0.00256008 -0.08174 0)
(0.001431 -0.0954453 0)
(0.000283561 -0.109678 0)
(-0.000850287 -0.12435 0)
(-0.00197767 -0.139472 0)
(-0.00318148 -0.155436 0)
(-0.00463314 -0.173548 0)
(-0.00655352 -0.196498 0)
(-0.00898227 -0.227699 0)
(-0.0105628 -0.268339 0)
(-0.0120608 -0.305564 0)
(-0.00322222 -0.303864 0)
(0.00480465 0.112221 0)
(0.00981118 0.162821 0)
(0.0127928 0.182428 0)
(0.0152936 0.192928 0)
(0.017653 0.195628 0)
(0.0191465 0.19174 0)
(0.0201491 0.181791 0)
(0.0205262 0.16858 0)
(0.020589 0.154159 0)
(0.0204997 0.139537 0)
(0.020338 0.125301 0)
(0.020172 0.111721 0)
(0.0200395 0.098855 0)
(0.0199476 0.0866501 0)
(0.0198858 0.0750021 0)
(0.0198321 0.0637958 0)
(0.0197605 0.0529242 0)
(0.0196447 0.0422932 0)
(0.0194612 0.0318209 0)
(0.0191896 0.0214333 0)
(0.0188135 0.0110606 0)
(0.0183195 0.000633393 0)
(0.0176971 -0.00991987 0)
(0.0169389 -0.0206746 0)
(0.016039 -0.0317126 0)
(0.0149937 -0.0431209 0)
(0.0138032 -0.0549886 0)
(0.0124697 -0.0673991 0)
(0.0110009 -0.0804156 0)
(0.00941779 -0.0940529 0)
(0.00774545 -0.108253 0)
(0.00601137 -0.122911 0)
(0.00422439 -0.137989 0)
(0.00233126 -0.153786 0)
(0.000182943 -0.171514 0)
(-0.00247659 -0.193949 0)
(-0.00581104 -0.22505 0)
(-0.00810197 -0.266652 0)
(-0.0109912 -0.30804 0)
(-0.00264234 -0.312011 0)
(0.00616986 0.103901 0)
(0.0132447 0.157705 0)
(0.017879 0.178847 0)
(0.0217595 0.189936 0)
(0.0253237 0.193096 0)
(0.0275212 0.190144 0)
(0.0292212 0.181103 0)
(0.030033 0.16827 0)
(0.0303801 0.154107 0)
(0.0304842 0.139618 0)
(0.0304621 0.125422 0)
(0.0304045 0.111828 0)
(0.0303614 0.0989268 0)
(0.0303467 0.0866901 0)
(0.0303512 0.0750287 0)
(0.0303515 0.0638351 0)
(0.0303185 0.0530042 0)
(0.030222 0.0424407 0)
(0.0300345 0.0320594 0)
(0.0297322 0.0217827 0)
(0.0292955 0.0115372 0)
(0.0287081 0.00125027 0)
(0.0279572 -0.00915278 0)
(0.0270335 -0.0197496 0)
(0.0259288 -0.0306235 0)
(0.0246369 -0.041864 0)
(0.0231533 -0.0535634 0)
(0.0214753 -0.0658092 0)
(0.0196062 -0.0786683 0)
(0.017554 -0.0921627 0)
(0.0153312 -0.106247 0)
(0.0129676 -0.120819 0)
(0.010477 -0.135805 0)
(0.00784231 -0.151408 0)
(0.00493611 -0.168729 0)
(0.00147647 -0.190595 0)
(-0.00284559 -0.22152 0)
(-0.00575692 -0.264026 0)
(-0.0102185 -0.309178 0)
(-0.0017914 -0.319036 0)
(0.00743952 0.0933222 0)
(0.0165676 0.150559 0)
(0.0228253 0.17374 0)
(0.0280131 0.185739 0)
(0.0326322 0.189799 0)
(0.0357438 0.187606 0)
(0.0381098 0.179805 0)
(0.0394612 0.167582 0)
(0.0401517 0.153792 0)
(0.0405004 0.13951 0)
(0.0406638 0.125403 0)
(0.0407507 0.111824 0)
(0.040825 0.0989057 0)
(0.0409091 0.0866503 0)
(0.0409974 0.074988 0)
(0.0410668 0.0638216 0)
(0.0410859 0.0530493 0)
(0.0410214 0.0425749 0)
(0.0408422 0.0323101 0)
(0.0405208 0.0221732 0)
(0.0400338 0.012087 0)
(0.039362 0.00197519 0)
(0.0384896 -0.00824039 0)
(0.0374045 -0.0186397 0)
(0.0360961 -0.0293073 0)
(0.034555 -0.0403341 0)
(0.0327734 -0.0518131 0)
(0.0307441 -0.0638346 0)
(0.0284601 -0.0764718 0)
(0.0259167 -0.0897551 0)
(0.023122 -0.103644 0)
(0.0200951 -0.118043 0)
(0.0168527 -0.132862 0)
(0.0134219 -0.148239 0)
(0.00969662 -0.165141 0)
(0.00536906 -0.186413 0)
(-1.97372e-05 -0.217131 0)
(-0.0034986 -0.260599 0)
(-0.00955484 -0.309463 0)
(-0.00107877 -0.325707 0)
(0.0085497 0.0805856 0)
(0.0196677 0.141484 0)
(0.0275248 0.167188 0)
(0.0339672 0.180407 0)
(0.0395155 0.18556 0)
(0.0437217 0.184264 0)
(0.0467378 0.177786 0)
(0.0487578 0.166438 0)
(0.0498895 0.153152 0)
(0.0505571 0.13916 0)
(0.050968 0.125197 0)
(0.0512508 0.111671 0)
(0.0514834 0.0987634 0)
(0.0516983 0.0865089 0)
(0.0518957 0.0748624 0)
(0.0520547 0.0637401 0)
(0.0521436 0.0530454 0)
(0.0521271 0.0426824 0)
(0.0519709 0.0325601 0)
(0.051644 0.0225929 0)
(0.0511191 0.0126993 0)
(0.0503741 0.00279922 0)
(0.0493893 -0.00718928 0)
(0.0481493 -0.0173482 0)
(0.0466404 -0.0277638 0)
(0.0448494 -0.0385279 0)
(0.0427637 -0.0497338 0)
(0.0403704 -0.0614709 0)
(0.0376543 -0.0738121 0)
(0.0346014 -0.0867961 0)
(0.0312026 -0.1004 0)
(0.0274685 -0.114538 0)
(0.0234272 -0.129116 0)
(0.0191361 -0.144212 0)
(0.0145244 -0.160679 0)
(0.0092518 -0.181338 0)
(0.00275181 -0.211819 0)
(-0.00120809 -0.256237 0)
(-0.0088545 -0.308557 0)
(-0.000154183 -0.331573 0)
(0.00932014 0.0657626 0)
(0.0223777 0.13042 0)
(0.0317534 0.15914 0)
(0.0394386 0.173943 0)
(0.0459578 0.180302 0)
(0.0511608 0.180192 0)
(0.0550285 0.174901 0)
(0.0578072 0.164701 0)
(0.0595223 0.152086 0)
(0.060622 0.138485 0)
(0.0613713 0.124737 0)
(0.061926 0.111317 0)
(0.0623783 0.0984569 0)
(0.0627725 0.0862324 0)
(0.0631167 0.0746254 0)
(0.0633953 0.0635687 0)
(0.0635784 0.0529738 0)
(0.0636306 0.0427466 0)
(0.0635155 0.0327943 0)
(0.0631995 0.0230277 0)
(0.0626513 0.0133615 0)
(0.0618461 0.0037116 0)
(0.0607599 -0.00600795 0)
(0.059373 -0.0158806 0)
(0.057668 -0.0259941 0)
(0.0556268 -0.036441 0)
(0.053231 -0.0473131 0)
(0.0504607 -0.0586985 0)
(0.0472918 -0.0706691 0)
(0.043698 -0.0832671 0)
(0.0396576 -0.0964801 0)
(0.0351766 -0.110251 0)
(0.0302751 -0.124501 0)
(0.0250548 -0.139264 0)
(0.0194628 -0.155263 0)
(0.0131444 -0.175295 0)
(0.00551113 -0.205534 0)
(0.0011198 -0.251072 0)
(-0.00860927 -0.30688 0)
(0.00071212 -0.337244 0)
(0.00948161 0.049325 0)
(0.0243368 0.117575 0)
(0.035233 0.149656 0)
(0.0441888 0.166359 0)
(0.0517354 0.174011 0)
(0.0579214 0.175173 0)
(0.0627822 0.171129 0)
(0.0664406 0.162217 0)
(0.0689156 0.150453 0)
(0.0706095 0.137371 0)
(0.0718314 0.123929 0)
(0.0727679 0.110683 0)
(0.0735297 0.0979245 0)
(0.0741748 0.0857718 0)
(0.0747225 0.0742384 0)
(0.0751651 0.063277 0)
(0.0754776 0.0528098 0)
(0.0756268 0.0427466 0)
(0.0755762 0.0329945 0)
(0.0752911 0.0234615 0)
(0.0747368 0.0140596 0)
(0.0738858 0.00470018 0)
(0.0727102 -0.0047059 0)
(0.0711848 -0.0142429 0)
(0.0692878 -0.0239997 0)
(0.0669949 -0.0340689 0)
(0.0642805 -0.0445398 0)
(0.0611163 -0.0554973 0)
(0.0574681 -0.0670099 0)
(0.0532982 -0.0791237 0)
(0.0485721 -0.0918406 0)
(0.0432894 -0.105132 0)
(0.0374674 -0.118943 0)
(0.0312404 -0.133305 0)
(0.0245703 -0.148804 0)
(0.0171396 -0.168166 0)
(0.00829573 -0.198081 0)
(0.00352947 -0.244825 0)
(-0.00841814 -0.304289 0)
(0.00184723 -0.342313 0)
(0.0081561 0.0318435 0)
(0.0250567 0.102753 0)
(0.0375354 0.138493 0)
(0.0478791 0.157578 0)
(0.0565595 0.16672 0)
(0.063774 0.169114 0)
(0.0697148 0.166349 0)
(0.0744168 0.158794 0)
(0.077859 0.148052 0)
(0.0803618 0.135645 0)
(0.0822429 0.122631 0)
(0.0837174 0.109654 0)
(0.0849175 0.0970719 0)
(0.0859181 0.0850524 0)
(0.0867527 0.073643 0)
(0.0874248 0.0628195 0)
(0.0879179 0.0525176 0)
(0.0882042 0.042654 0)
(0.0882497 0.0331376 0)
(0.0880209 0.023875 0)
(0.0874809 0.0147774 0)
(0.0866005 0.00575198 0)
(0.0853475 -0.0032926 0)
(0.0836912 -0.0124399 0)
(0.0816043 -0.0217801 0)
(0.0790556 -0.0314045 0)
(0.0760106 -0.041398 0)
(0.0724305 -0.0518418 0)
(0.0682705 -0.0628001 0)
(0.0634815 -0.0743227 0)
(0.0580178 -0.0864252 0)
(0.0518755 -0.0991163 0)
(0.0450671 -0.112375 0)
(0.0377511 -0.126248 0)
(0.0299072 -0.141209 0)
(0.0212789 -0.15989 0)
(0.0111573 -0.189467 0)
(0.0059672 -0.237421 0)
(-0.00866971 -0.301053 0)
(0.0031255 -0.347064 0)
(0.00436049 0.0162957 0)
(0.0236547 0.0865016 0)
(0.0382262 0.125616 0)
(0.0501522 0.147436 0)
(0.060098 0.158356 0)
(0.0684117 0.16196 0)
(0.0755057 0.160407 0)
(0.0814292 0.154226 0)
(0.0860742 0.144651 0)
(0.0896448 0.133092 0)
(0.0924265 0.120656 0)
(0.0946476 0.108073 0)
(0.0964615 0.0957712 0)
(0.0979626 0.0839705 0)
(0.0992017 0.0727566 0)
(0.100197 0.0621312 0)
(0.100944 0.0520468 0)
(0.101425 0.0424295 0)
(0.101611 0.0331929 0)
(0.101471 0.0242445 0)
(0.100973 0.0154971 0)
(0.10008 0.00685317 0)
(0.0987621 -0.00177749 0)
(0.096981 -0.010475 0)
(0.0947032 -0.0193319 0)
(0.0918904 -0.0284364 0)
(0.0884976 -0.037867 0)
(0.0844743 -0.0477007 0)
(0.0797645 -0.0579969 0)
(0.0743088 -0.0688118 0)
(0.068053 -0.0801754 0)
(0.060992 -0.09214 0)
(0.0531319 -0.10472 0)
(0.0446541 -0.118008 0)