/*--------------------------------*- C++ -*----------------------------------*\
  =========                 |
  \\      /  F ield         | OpenFOAM: The Open Source CFD Toolbox
   \\    /   O peration     | Website:  https://openfoam.org
    \\  /    A nd           | Version:  12
     \\/     M anipulation  |
\*---------------------------------------------------------------------------*/
FoamFile
{
    format      ascii;
    class       volScalarField;
    location    "3.5";
    object      epsilon;
}
// * * * * * * * * * * * * * * * * * * * * * * * * * * * * * * * * * * * * * //

dimensions      [0 2 -3 0 0 0 0];

internalField   nonuniform List<scalar> 
1600
(
1.77781e-05
7.32956e-05
0.000153948
0.000190579
0.000203056
0.000219795
0.000258087
0.000314796
0.000372604
0.000434748
0.000572077
0.000803336
0.00100714
0.00116892
0.00138113
0.00164282
0.00192856
0.00221765
0.00253138
0.00285832
0.00321854
0.00360902
0.00405128
0.00455531
0.00515982
0.00580797
0.00639156
0.00694575
0.007382
0.00762681
0.00771655
0.00745489
0.00669035
0.00544114
0.00386199
0.00222888
0.00102193
0.000408653
0.00012801
2.62297e-05
8.21155e-05
9.8694e-05
0.000134252
0.000154774
0.000176858
0.000228205
0.000337079
0.000526615
0.000789248
0.0011225
0.00175778
0.00262463
0.00299692
0.00307449
0.00307965
0.00305528
0.00305243
0.00305408
0.00310192
0.00317112
0.00328785
0.00343442
0.00360607
0.00380527
0.0040454
0.0043325
0.00465356
0.00500633
0.00536019
0.00562673
0.00574359
0.00574489
0.00533299
0.00457303
0.00329826
0.00191014
0.000812565
0.000346464
0.000123657
5.94424e-05
0.000219394
0.000226818
0.000257928
0.000295944
0.00038454
0.000589278
0.00100174
0.00170895
0.00265951
0.00327484
0.00343643
0.00324306
0.00297977
0.0028475
0.00269893
0.0025591
0.00246514
0.00240821
0.00238544
0.00238141
0.00241661
0.00247165
0.00257146
0.002702
0.00285937
0.00304619
0.00326478
0.00351686
0.00380501
0.00412815
0.00445475
0.00467284
0.00474581
0.00446662
0.00382035
0.00249562
0.000857829
0.000253897
9.2561e-05
5.40398e-05
0.000476531
0.000430789
0.000484748
0.000604002
0.000882833
0.0014527
0.00235651
0.00315748
0.00343993
0.00336426
0.00312089
0.0027396
0.00240864
0.0021524
0.00199754
0.00191341
0.00187156
0.00185652
0.0018563
0.00189196
0.00194196
0.00201141
0.00209718
0.00219867
0.00231864
0.00245663
0.00261731
0.00280218
0.00301187
0.00324379
0.0034989
0.00376521
0.00405353
0.00421531
0.0042105
0.00375769
0.00175877
0.000351783
8.357e-05
4.27492e-05
0.000893876
0.000731985
0.000862382
0.0011389
0.00168132
0.00250603
0.00316248
0.00336369
0.00326161
0.00287718
0.00232262
0.00201334
0.00179337
0.00166983
0.00161049
0.001587
0.00158278
0.00160682
0.00164721
0.00170306
0.0017664
0.00183898
0.00191939
0.00201022
0.00211474
0.00223624
0.00237949
0.00254718
0.00273935
0.0029499
0.00317929
0.00341263
0.00365161
0.00393151
0.00420371
0.00427504
0.00365092
0.00100817
0.000147456
4.96079e-05
0.00152592
0.00115996
0.00138568
0.00181489
0.00247427
0.00302802
0.00320278
0.00312796
0.00263169
0.00207057
0.00175459
0.00156819
0.00146933
0.00142767
0.00141626
0.00142717
0.00146333
0.0015104
0.00156556
0.00162582
0.0016903
0.00176002
0.00183702
0.00192437
0.00202595
0.00214616
0.00229019
0.00246169
0.00266257
0.0028909
0.00312437
0.00335206
0.00357032
0.00379925
0.00407079
0.00428688
0.004311
0.00255899
0.000404491
8.60436e-05
0.00234456
0.0016929
0.00197795
0.00244514
0.00289323
0.00305329
0.00299873
0.00251308
0.00192677
0.00159419
0.00141993
0.00133497
0.0013017
0.00129475
0.00131191
0.00134607
0.00138824
0.00143327
0.00148061
0.00153024
0.00158337
0.00164285
0.0017121
0.00179555
0.00189835
0.00202651
0.00218627
0.00238265
0.0026177
0.00288693
0.00317699
0.00347535
0.00369603
0.00387342
0.00404582
0.00427597
0.00438924
0.00393312
0.000999051
0.000179719
0.00324694
0.00226953
0.00252933
0.00285693
0.00298861
0.00291547
0.0024978
0.00188638
0.00150645
0.00132231
0.00123633
0.00120327
0.00119598
0.00120726
0.00123393
0.00126318
0.0012927
0.00132113
0.00134973
0.00138037
0.001416
0.00146039
0.00151783
0.0015935
0.00169336
0.00182466
0.00199561
0.00221453
0.00248796
0.00281644
0.00318784
0.00357584
0.00396517
0.00419484
0.00433242
0.00443438
0.00450363
0.00437889
0.00205586
0.000385515
0.00405047
0.00279613
0.00294861
0.00304462
0.00292682
0.0025679
0.00195741
0.00148919
0.00126537
0.00116377
0.00112289
0.00111167
0.00111235
0.00112793
0.0011437
0.00115647
0.00116613
0.00117394
0.00118251
0.00119478
0.0012144
0.00124499
0.00129066
0.00135633
0.00144811
0.00157388
0.00174364
0.00196935
0.00226365
0.00263611
0.0030858
0.00358917
0.00409786
0.00451859
0.00471242
0.0048024
0.00483481
0.00472973
0.00366699
0.00101684
0.00468971
0.00320947
0.00319926
0.00308994
0.00274058
0.00214227
0.00156176
0.00125536
0.00111759
0.00105917
0.00103812
0.00103301
0.00103335
0.00103681
0.00103707
0.00103113
0.00102234
0.00101332
0.00100878
0.0010078
0.00101631
0.00103718
0.00107318
0.00112859
0.001209
0.00132222
0.0014791
0.00169424
0.0019859
0.00237364
0.00287158
0.0034747
0.00413741
0.00479118
0.00512741
0.00524277
0.00525384
0.00507039
0.00458305
0.0020932
0.00510623
0.00347852
0.00332864
0.00303098
0.0024464
0.00177517
0.00131589
0.00110746
0.00101656
0.000978462
0.000962948
0.000955984
0.000949172
0.000939096
0.000922989
0.00090249
0.000881301
0.000862292
0.000849707
0.000844559
0.000845448
0.000860446
0.000889209
0.000935368
0.00100367
0.00110125
0.00123877
0.00143187
0.00170238
0.00207821
0.00258914
0.00325447
0.00405761
0.00490755
0.00555953
0.00578787
0.00581039
0.00553876
0.00501702
0.00323359
0.00536162
0.00362074
0.0033231
0.00288873
0.00215422
0.00149851
0.00115536
0.00100383
0.000937556
0.000907775
0.00089312
0.000880146
0.000863127
0.000840562
0.000813075
0.000783975
0.000756597
0.000733522
0.000717685
0.000710448
0.00070908
0.000719853
0.000743223
0.000781469
0.000838538
0.000920607
0.00103741
0.00120409
0.00144362
0.00178882
0.00228182
0.00296566
0.00386111
0.00492397
0.00592326
0.0063543
0.00642381
0.00610802
0.00568425
0.00431082
0.00536767
0.00363791
0.00326573
0.00269008
0.00189101
0.00131038
0.00104166
0.000923639
0.000870528
0.000844831
0.000827051
0.000806533
0.000780356
0.000749161
0.000715423
0.000682545
0.000653236
0.00062943
0.000612843
0.000604922
0.0006029
0.000610596
0.00062957
0.000661105
0.000708424
0.000776724
0.000874471
0.00101544
0.0012218
0.00152806
0.00198421
0.00265258
0.00358769
0.00478635
0.00611597
0.00693537
0.00711642
0.00673386
0.00607303
0.00525184
0.00530243
0.00360409
0.00313947
0.0024824
0.00167626
0.00117697
0.000955529
0.000857981
0.000812613
0.000787752
0.000765349
0.000738125
0.00070548
0.000669509
0.000633217
0.00059953
0.000570477
0.000547319
0.00053083
0.000522622
0.000520158
0.000525319
0.000540454
0.000566287
0.000605422
0.000662168
0.000743684
0.000861973
0.00103723
0.00130306
0.00171305
0.00234462
0.00328751
0.00459474
0.00617817
0.00747691
0.00786604
0.00749623
0.00671955
0.00620088
0.00514233
0.00351762
0.00297513
0.00228354
0.00150916
0.0010772
0.000887348
0.000802897
0.000762312
0.000736288
0.000709462
0.000677331
0.000640914
0.000602913
0.00056622
0.000533149
0.000505102
0.000482812
0.000466617
0.000457873
0.000454844
0.000457712
0.000469432
0.000490447
0.00052286
0.000570232
0.000638526
0.000737921
0.000886109
0.00111404
0.00147487
0.0020541
0.00296968
0.004335
0.0061524
0.00794648
0.00863622
0.00829044
0.00732223
0.00708819
0.00486698
0.00338657
0.00279951
0.00210465
0.00138244
0.00100043
0.000832072
0.000756288
0.000718557
0.000690734
0.000660444
0.000625242
0.000587039
0.000548636
0.000512563
0.000480564
0.000453559
0.000431945
0.000415872
0.000406294
0.000402521
0.000403339
0.000412046
0.000429029
0.000456011
0.000495947
0.000553786
0.000638036
0.000763812
0.000958609
0.00127257
0.00179366
0.00265944
0.00403353
0.00599024
0.00828912
0.00941884
0.00923898
0.00804072
0.00800138
0.00453772
0.00323544
0.00262576
0.00195056
0.0012862
0.000940455
0.000786881
0.000717182
0.000680746
0.000651227
0.000618591
0.000581767
0.000543034
0.000505057
0.000469955
0.00043902
0.000412851
0.00039166
0.000375526
0.000364928
0.000360087
0.00035939
0.000365446
0.000379083
0.000401713
0.000435833
0.000485579
0.000558026
0.000665876
0.000832905
0.00110462
0.00156695
0.00236966
0.00372498
0.00580255
0.00845407
0.0101877
0.0102337
0.00877045
0.00888558
0.00415691
0.00308847
0.00246481
0.00182119
0.0012135
0.00089368
0.000750074
0.000684411
0.00064838
0.000617559
0.000583566
0.000546126
0.000507588
0.000470392
0.000436297
0.000406275
0.000380728
0.000359777
0.000343467
0.000331895
0.000325784
0.00032402
0.000327851
0.000338733
0.000357881
0.000387473
0.000431042
0.000494513
0.000588485
0.000733143
0.000968644
0.00137555
0.00210741
0.00341304
0.00555813
0.00851501
0.0109503
0.0113091
0.00963898
0.00979955
0.00376478
0.00294467
0.00231989
0.001715
0.00115959
0.000857891
0.000720446
0.00065704
0.000620908
0.000589233
0.000554659
0.000517268
0.000479328
0.000443042
0.000409892
0.000380641
0.000355577
0.000334769
0.000318234
0.000306018
0.000298724
0.000296026
0.000298119
0.000306765
0.000323113
0.000349158
0.000388036
0.000444816
0.000528361
0.0006556
0.000861195
0.0012184
0.00187821
0.00311528
0.00528751
0.00851976
0.0116345
0.0124217
0.0105723
0.0106968
0.00334118
0.00281511
0.00219579
0.00162976
0.00112033
0.000831492
0.000696969
0.000634315
0.000597758
0.000565612
0.000531028
0.000494131
0.000457028
0.000421705
0.000389449
0.000360896
0.000336275
0.000315635
0.000298987
0.00028638
0.000278178
0.000274639
0.000275451
0.000282309
0.00029639
0.000319621
0.000354926
0.000406806
0.000482784
0.000596982
0.000778808
0.00109319
0.00168331
0.00283718
0.00499364
0.00843243
0.0122531
0.013598
0.0116321
0.0116193
0.00300618
0.00270284
0.00209183
0.00156374
0.00109456
0.000813987
0.000679294
0.000615726
0.000578374
0.000546019
0.000511841
0.000475763
0.000439672
0.000405368
0.000374008
0.000346159
0.000322026
0.000301656
0.000285064
0.000272305
0.000263554
0.00025926
0.000259175
0.000264622
0.000276853
0.000297823
0.000330397
0.000378757
0.000449483
0.000554393
0.000718112
0.000997063
0.00152327
0.00258706
0.00469539
0.00829823
0.0127843
0.0148115
0.0127844
0.0125284
0.00272083
0.0026034
0.00201188
0.00151378
0.00107741
0.000804249
0.000666798
0.000600914
0.000562312
0.000529863
0.000496376
0.00046137
0.00042645
0.000393252
0.000362848
0.000335771
0.000312225
0.000292263
0.000275901
0.000263191
0.000254266
0.000249353
0.000248676
0.000252963
0.000263664
0.000282818
0.000313319
0.000359225
0.000426552
0.000525329
0.00067596
0.000926687
0.00139663
0.0023691
0.00440275
0.00813573
0.0132186
0.0160572
0.0140853
0.0134521
0.0024675
0.00251391
0.00196153
0.00148156
0.0010751
0.000805313
0.00066097
0.000590141
0.000549394
0.000516686
0.000484025
0.00045029
0.00041671
0.000384746
0.000355405
0.000329217
0.000306399
0.000287002
0.00027103
0.000258513
0.000249567
0.000244432
0.000243565
0.000247053
0.000256555
0.000274351
0.000303216
0.000347429
0.000412985
0.000508702
0.000650873
0.000878702
0.00130081
0.00218466
0.00412035
0.00793732
0.0135647
0.0173119
0.015522
0.0143598
0.00223466
0.00243988
0.00193014
0.00146423
0.00107949
0.000811504
0.000662209
0.000583591
0.000539638
0.000506341
0.000474436
0.000442056
0.000409953
0.000379356
0.000351224
0.000326159
0.000304344
0.000285692
0.000270195
0.0002579
0.000248948
0.000243635
0.000242562
0.000245453
0.00025408
0.000271056
0.00029882
0.000342038
0.000406809
0.000501355
0.00063947
0.000852936
0.00123314
0.00203478
0.00385334
0.00769678
0.0138367
0.0185706
0.0171073
0.0152682
0.00201619
0.00237915
0.00191987
0.0014661
0.00109188
0.000825825
0.000668105
0.000583927
0.000533552
0.000498519
0.000467223
0.00043624
0.000405707
0.000376717
0.000350257
0.000326379
0.000305207
0.000287056
0.000271967
0.000259988
0.000251255
0.000246067
0.00024504
0.00024747
0.0002551
0.000270967
0.000298008
0.000340728
0.000405298
0.000499707
0.000636457
0.000843092
0.00119061
0.00191804
0.00361046
0.00742058
0.0140017
0.0198437
0.0188141
0.0161524
0.0018075
0.00232755
0.00192377
0.00147623
0.00111691
0.000850672
0.000681803
0.000588049
0.000533718
0.000494993
0.000462697
0.000432721
0.000404058
0.000376868
0.000351362
0.000328394
0.000308238
0.000291003
0.000276651
0.000265204
0.000256782
0.000251693
0.000250758
0.00025299
0.000260104
0.00027531
0.000301907
0.000344579
0.000409948
0.000505984
0.000643167
0.000842813
0.00117112
0.00183075
0.00339388
0.00711753
0.0140697
0.0211012
0.0206612
0.0170176
0.00160728
0.00227833
0.00193512
0.00149866
0.0011517
0.000885434
0.000706473
0.000599022
0.000537359
0.000496009
0.000462863
0.000432979
0.000404897
0.000378588
0.00035448
0.000332983
0.000314165
0.000297932
0.000284326
0.000273389
0.000265242
0.000260215
0.000259429
0.000261615
0.000268539
0.000283519
0.000310237
0.000353519
0.000420397
0.000519166
0.000659598
0.000858465
0.0011671
0.0017688
0.00320382
0.00679274
0.0140737
0.02232
0.0226206
0.017844
0.00141361
0.00222393
0.00195787
0.00153502
0.00119605
0.000930277
0.000741906
0.000621371
0.000547859
0.000501048
0.000465706
0.000435408
0.000407867
0.00038273
0.000360179
0.000340037
0.000322389
0.000307181
0.00029439
0.000284046
0.000276264
0.000271393
0.00027089
0.000273164
0.000280192
0.000295406
0.000322733
0.000367162
0.000436114
0.000538354
0.000683549
0.000885357
0.00118289
0.00173848
0.00304485
0.00645575
0.0139052
0.0234295
0.0246862
0.0186338
0.00122793
0.00215023
0.00196936
0.0015769
0.00124866
0.000986008
0.000790205
0.000656672
0.000570084
0.000513716
0.00047397
0.000442012
0.000414426
0.000390136
0.000368568
0.000349554
0.000332996
0.000318774
0.000306815
0.000297127
0.000289806
0.000285249
0.000285164
0.000287683
0.000295151
0.000311133
0.0003396
0.000385758
0.000457345
0.000563628
0.000714645
0.000922349
0.00121566
0.00172893
0.0029142
0.00612213
0.0136405
0.0243699
0.0268148
0.0193734
0.00105727
0.00204631
0.00195805
0.00162927
0.00130628
0.0010501
0.000851187
0.000706865
0.000607431
0.000539774
0.000491992
0.000456023
0.00042693
0.000402198
0.000380875
0.000362465
0.000346655
0.000333211
0.000321981
0.000312948
0.000306138
0.000302177
0.000302486
0.000305579
0.000313881
0.000331234
0.000361429
0.000409949
0.000484756
0.000595583
0.000753153
0.00096909
0.00126425
0.00174159
0.00282305
0.00579867
0.0132778
0.0251881
0.0289459
0.020066
0.000909658
0.00189996
0.00192102
0.00168822
0.00137378
0.0011244
0.000926686
0.000775257
0.000664069
0.000584183
0.000526369
0.000483223
0.000449613
0.000422389
0.000399841
0.000380979
0.000365171
0.000351993
0.000341158
0.000332624
0.000326251
0.000323126
0.000323925
0.000327874
0.000337464
0.00035688
0.000389466
0.000441088
0.000519824
0.000635831
0.000800682
0.00102694
0.00133059
0.00178579
0.00278467
0.00549326
0.0127678
0.0258192
0.0309815
0.020706
0.000793443
0.00169065
0.00186773
0.00171024
0.00143672
0.00120448
0.00101558
0.000863416
0.000744278
0.000653085
0.000583753
0.00053076
0.000489646
0.000457137
0.000431037
0.000409882
0.000392666
0.000378703
0.000367499
0.000358993
0.000352724
0.000350506
0.000351889
0.000356975
0.000368505
0.000390532
0.000426422
0.000482198
0.000565981
0.000688415
0.000861981
0.00110131
0.00142089
0.00186646
0.00278543
0.00528878
0.0122221
0.026287
0.0328107
0.0213113
0.00070928
0.00143909
0.0017814
0.0016961
0.00149096
0.00129008
0.00111909
0.000975158
0.000854635
0.000755573
0.000675292
0.000610822
0.000559255
0.000518053
0.000485118
0.00045878
0.000437734
0.000421039
0.000407918
0.00039834
0.000391346
0.000389758
0.00039178
0.000398292
0.00041249
0.000438201
0.000478907
0.00054077
0.000631922
0.000763805
0.00094973
0.00120765
0.00155347
0.00201935
0.00290148
0.00522312
0.0118743
0.026587
0.0342495
0.0218922
0.000669982
0.00119612
0.00163387
0.00164103
0.00153878
0.00137999
0.00123874
0.00111187
0.000998527
0.000898157
0.000810813
0.000736218
0.000673501
0.00062144
0.00057866
0.000543801
0.000515628
0.000493209
0.000475673
0.000463175
0.000454277
0.0004531
0.000456058
0.000464882
0.000483592
0.000515651
0.00056467
0.000637326
0.0007417
0.000891079
0.00109904
0.00138981
0.00178106
0.00231568
0.00321349
0.00543264
0.0117755
0.0268907
0.0351451
0.0225362
0.000706285
0.000990633
0.00142737
0.00154691
0.00153904
0.0014795
0.0013902
0.00129645
0.0012014
0.00110718
0.00101721
0.000933881
0.000858925
0.000793186
0.000736795
0.000689434
0.000650337
0.00061976
0.000596952
0.000581399
0.000572609
0.000573568
0.000580013
0.000595689
0.000625366
0.000671124
0.000738273
0.000834956
0.000968902
0.00115863
0.00141549
0.00177962
0.00226419
0.00296291
0.00400144
0.00633633
0.0124559
0.0276634
0.0355754
0.0229438
0.000844131
0.000823268
0.00116954
0.00140584
0.00155312
0.00159202
0.00157603
0.00153289
0.00146672
0.00138915
0.00130561
0.00122268
0.00114392
0.00107237
0.0010097
0.000956978
0.000914263
0.000882024
0.000859612
0.000847591
0.000849562
0.000860393
0.000885211
0.000928454
0.000990982
0.00108007
0.00119822
0.00135996
0.00157419
0.00187349
0.00225741
0.0028098
0.00351192
0.00458641
0.00600393
0.00883466
0.0149592
0.0295361
0.0357462
0.0230896
0.00106565
0.000810183
0.00112382
0.00145763
0.00171297
0.00189416
0.00199361
0.00203368
0.002024
0.00198889
0.00192728
0.00185934
0.00179147
0.00172985
0.00167831
0.001641
0.00161766
0.00161777
0.00162909
0.00165867
0.0017178
0.0018018
0.00191334
0.00206239
0.00225128
0.00249599
0.00279704
0.00318764
0.00365607
0.00426996
0.00500835
0.00605257
0.00727723
0.00915831
0.0114044
0.0153124
0.0211528
0.0335234
0.036044
0.0229909
0.00156239
0.0010465
0.00158057
0.00219652
0.00273058
0.00317147
0.00349355
0.00371435
0.00385132
0.00393738
0.00398448
0.00401719
0.00405171
0.00410028
0.00417021
0.00427173
0.00440766
0.00458715
0.00481203
0.00508754
0.00542303
0.00582927
0.00630908
0.00688241
0.00754958
0.00834617
0.00926233
0.01036
0.0116078
0.0131184
0.0148002
0.016861
0.0192388
0.0226113
0.0263095
0.0316071
0.0362166
0.0413736
0.0380821
0.0219454
0.00275669
0.00246259
0.00491299
0.0073525
0.0090956
0.0104088
0.0114124
0.0121877
0.0127996
0.013306
0.0137626
0.0142043
0.0146723
0.0151883
0.0157766
0.0164483
0.0172201
0.0181008
0.0191
0.0202329
0.0214996
0.0229297
0.024512
0.026293
0.0282428
0.0304262
0.0327982
0.0354233
0.0382755
0.041336
0.0447515
0.048117
0.0522895
0.0553555
0.0596261
0.0594974
0.057021
0.0489542
0.0392643
0.0198207
0.00186378
0.00312484
0.00452181
0.00608195
0.00754834
0.00884608
0.00996302
0.0109072
0.0116862
0.0123245
0.0128295
0.0132297
0.0135373
0.0137842
0.0139772
0.0141408
0.0142809
0.0144132
0.0145433
0.014677
0.01483
0.0149882
0.0151906
0.0153905
0.0156659
0.0159205
0.0162922
0.0166105
0.0170995
0.0174814
0.0180881
0.0185152
0.0191776
0.0196493
0.0205548
0.0211696
0.0219296
0.0218346
0.0209984
0.0175098
)
;

boundaryField
{
    movingWall
    {
        type            epsilonWallFunction;
        value           nonuniform List<scalar> 
40
(
0.00186378
0.00312484
0.00452181
0.00608195
0.00754834
0.00884608
0.00996302
0.0109072
0.0116862
0.0123245
0.0128295
0.0132297
0.0135373
0.0137842
0.0139772
0.0141408
0.0142809
0.0144132
0.0145433
0.014677
0.01483
0.0149882
0.0151906
0.0153905
0.0156659
0.0159205
0.0162922
0.0166105
0.0170995
0.0174814
0.0180881
0.0185152
0.0191776
0.0196493
0.0205548
0.0211696
0.0219296
0.0218346
0.0209984
0.0175098
)
;
    }
    fixedWalls
    {
        type            epsilonWallFunction;
        value           nonuniform List<scalar> 
120
(
1.77781e-05
8.21155e-05
0.000219394
0.000476531
0.000893876
0.00152592
0.00234456
0.00324694
0.00405047
0.00468971
0.00510623
0.00536162
0.00536767
0.00530243
0.00514233
0.00486698
0.00453772
0.00415691
0.00376478
0.00334118
0.00300618
0.00272083
0.0024675
0.00223466
0.00201619
0.0018075
0.00160728
0.00141361
0.00122793
0.00105727
0.000909658
0.000793443
0.00070928
0.000669982
0.000706285
0.000844131
0.00106565
0.00156239
0.00275669
0.00186378
2.62297e-05
5.94424e-05
5.40398e-05
4.27492e-05
4.96079e-05
8.60436e-05
0.000179719
0.000385515
0.00101684
0.0020932
0.00323359
0.00431082
0.00525184
0.00620088
0.00708819
0.00800138
0.00888558
0.00979955
0.0106968
0.0116193
0.0125284
0.0134521
0.0143598
0.0152682
0.0161524
0.0170176
0.017844
0.0186338
0.0193734
0.020066
0.020706
0.0213113
0.0218922
0.0225362
0.0229438
0.0230896
0.0229909
0.0219454
0.0198207
0.0175098
1.77781e-05
7.32956e-05
0.000153948
0.000190579
0.000203056
0.000219795
0.000258087
0.000314796
0.000372604
0.000434748
0.000572077
0.000803336
0.00100714
0.00116892
0.00138113
0.00164282
0.00192856
0.00221765
0.00253138
0.00285832
0.00321854
0.00360902
0.00405128
0.00455531
0.00515982
0.00580797
0.00639156
0.00694575
0.007382
0.00762681
0.00771655
0.00745489
0.00669035
0.00544114
0.00386199
0.00222888
0.00102193
0.000408653
0.00012801
2.62297e-05
)
;
    }
    frontAndBack
    {
        type            empty;
    }
}


// ************************************************************************* //
