/*--------------------------------*- C++ -*----------------------------------*\
  =========                 |
  \\      /  F ield         | OpenFOAM: The Open Source CFD Toolbox
   \\    /   O peration     | Website:  https://openfoam.org
    \\  /    A nd           | Version:  12
     \\/     M anipulation  |
\*---------------------------------------------------------------------------*/
FoamFile
{
    format      ascii;
    class       volScalarField;
    location    "3.5";
    object      k;
}
// * * * * * * * * * * * * * * * * * * * * * * * * * * * * * * * * * * * * * //

dimensions      [0 2 -2 0 0 0 0];

internalField   nonuniform List<scalar> 
1600
(
1.38754e-06
5.71846e-06
1.20096e-05
1.48612e-05
1.58284e-05
1.71372e-05
2.01367e-05
2.45884e-05
2.91214e-05
3.39847e-05
4.47292e-05
6.28279e-05
7.87561e-05
9.14022e-05
0.000107996
0.000128465
0.000150817
0.000173432
0.000197973
0.00022355
0.000251729
0.000282276
0.000316871
0.0003563
0.000403584
0.000454264
0.000499902
0.00054323
0.000577333
0.000596462
0.00060347
0.000582965
0.000523176
0.000425446
0.000301877
0.000174186
7.98661e-05
3.19338e-05
1.00009e-05
2.04884e-06
6.41021e-06
3.83466e-05
7.79278e-05
9.70444e-05
0.000108103
0.000122189
0.000148537
0.000184606
0.000220196
0.000256378
0.000334413
0.000446481
0.000517523
0.000550633
0.000583083
0.000618056
0.000659892
0.000697521
0.000741766
0.000785683
0.000835222
0.0008863
0.000940765
0.000994854
0.00104703
0.00110049
0.00115871
0.00121479
0.00126351
0.00128739
0.00129442
0.00124755
0.0011398
0.000967134
0.000711404
0.000443091
0.000203034
8.50354e-05
3.05815e-05
4.6402e-06
1.71383e-05
9.21135e-05
0.000160344
0.000196437
0.000233028
0.000295245
0.000397783
0.000529529
0.000667178
0.000748494
0.000770218
0.00074298
0.000721736
0.000714966
0.000732392
0.000754609
0.000779092
0.000806047
0.000836563
0.000868254
0.000902418
0.000937206
0.000973782
0.00101156
0.00105021
0.00109073
0.00113201
0.00117207
0.0012084
0.0012319
0.00124108
0.00123216
0.00115458
0.0010254
0.000793491
0.000511717
0.000203988
7.90746e-05
2.97208e-05
4.2172e-06
3.72459e-05
0.000179339
0.000276879
0.000338953
0.000420809
0.00055159
0.000718772
0.000837797
0.00087376
0.000830495
0.000778269
0.000754712
0.000746574
0.000746606
0.000765558
0.00078174
0.000805484
0.000829368
0.000855395
0.000880993
0.000907908
0.000933941
0.000960213
0.000986973
0.00101492
0.0010428
0.00107028
0.00109666
0.00112021
0.00113612
0.00114275
0.00114277
0.00111075
0.00105282
0.00093431
0.000701709
0.000296004
8.45666e-05
2.56752e-05
3.3344e-06
6.98886e-05
0.000304418
0.000433809
0.000525573
0.000646697
0.000800978
0.000898123
0.00092026
0.000864827
0.000801975
0.00076326
0.00074811
0.000744896
0.000755333
0.000775996
0.000796893
0.000823012
0.000848229
0.000875098
0.000900741
0.00092601
0.00095016
0.000974002
0.000996815
0.00101982
0.00104296
0.00106658
0.00108944
0.00110947
0.00112281
0.0011281
0.00112791
0.00110304
0.00106391
0.00100301
0.000877388
0.000597243
0.0001713
3.38435e-05
3.87015e-06
0.000119322
0.00045792
0.000615908
0.000723004
0.000843905
0.000925672
0.000944463
0.000895602
0.000810851
0.0007609
0.000742012
0.000737515
0.000746065
0.000765979
0.000791717
0.000818878
0.000848377
0.000876791
0.000904723
0.000930636
0.000955348
0.000978586
0.00100141
0.00102434
0.00104888
0.00107633
0.00110742
0.00114156
0.0011755
0.00119828
0.00120791
0.00121025
0.00119085
0.00113586
0.00105351
0.000949135
0.000771209
0.000333506
6.63315e-05
6.71692e-06
0.000183348
0.000619264
0.000796688
0.000890812
0.000949887
0.000964995
0.000918891
0.000825239
0.000760457
0.000735355
0.000728944
0.000734142
0.000753622
0.000782615
0.000810787
0.000840084
0.000868154
0.000893996
0.000918153
0.000940659
0.000962009
0.000982837
0.00100415
0.00102684
0.00105251
0.00108272
0.00111857
0.00116076
0.00120954
0.00126202
0.00129733
0.0013083
0.00130932
0.00127412
0.00118584
0.00104231
0.000854467
0.000568736
0.000132415
1.40408e-05
0.000253912
0.00077888
0.000947259
0.000996514
0.00100281
0.000947646
0.000853687
0.00076695
0.000730651
0.000719944
0.000719761
0.000738385
0.000766371
0.00079439
0.000820891
0.000846233
0.000869477
0.000891096
0.000910231
0.00092718
0.000942843
0.00095855
0.000976143
0.000997808
0.00102495
0.00105896
0.00110141
0.00115307
0.0012133
0.0012801
0.00135177
0.00139886
0.0014101
0.00140339
0.00134452
0.00121099
0.000989928
0.000675796
0.000216584
3.01379e-05
0.000316727
0.000908285
0.00105053
0.00106281
0.000999549
0.000901564
0.000788047
0.000732746
0.000712546
0.000708924
0.00072005
0.000745248
0.000771434
0.000796121
0.000819508
0.000840674
0.000857946
0.000871274
0.000880824
0.0008897
0.00089928
0.000911228
0.000926888
0.000947474
0.000974611
0.00101018
0.00105628
0.00111484
0.0011869
0.00127122
0.00136225
0.00145394
0.00150688
0.00151656
0.00148921
0.00137975
0.00117072
0.000858276
0.000379049
7.95303e-05
0.000366684
0.00100314
0.00112536
0.0010996
0.000979043
0.000842203
0.000749222
0.000711175
0.000700516
0.000701848
0.000720959
0.000746008
0.000769968
0.000791436
0.000808921
0.000820885
0.000827705
0.00083192
0.000836118
0.000840951
0.000847691
0.000857529
0.000871494
0.00089074
0.000916789
0.000951591
0.000997638
0.00105787
0.0011352
0.00123125
0.00134412
0.00146494
0.00157277
0.00161923
0.00162339
0.00154621
0.00134088
0.00100519
0.000552533
0.000163717
0.000399225
0.001062
0.00116806
0.00109794
0.000939904
0.000793985
0.000722735
0.000695914
0.000690031
0.000697854
0.000719941
0.000743134
0.000762781
0.000776994
0.000784459
0.00078774
0.000788908
0.000789237
0.000790222
0.000792869
0.000798162
0.000806839
0.000819751
0.000837817
0.00086231
0.000895019
0.000938511
0.000996285
0.00107264
0.00117184
0.00129609
0.00144188
0.00159483
0.00170927
0.00173938
0.00170936
0.00153522
0.00118694
0.00066394
0.00025287
0.000419166
0.00109435
0.00118641
0.00108603
0.000896268
0.000761467
0.000703169
0.000683772
0.000681205
0.000694199
0.000715947
0.000734668
0.000746644
0.000752137
0.000753698
0.000753026
0.000750729
0.000749001
0.000748421
0.000749924
0.000754552
0.000762628
0.000774831
0.000791881
0.0008148
0.00084513
0.000885256
0.000938766
0.00101069
0.00110724
0.00123429
0.00139369
0.00157694
0.00175488
0.00184209
0.00184973
0.0017112
0.0013635
0.000827021
0.000337055
0.00041959
0.00109683
0.00118136
0.00106053
0.000857128
0.000736433
0.000687463
0.000673231
0.000672898
0.000688398
0.000707043
0.000719263
0.000724593
0.000725738
0.000723961
0.000720306
0.000716189
0.000713258
0.000712073
0.000712734
0.000716749
0.000724191
0.000735605
0.000751611
0.000773053
0.00080123
0.000838223
0.00088736
0.000953752
0.00104464
0.00116882
0.00133379
0.00153916
0.00176601
0.00193442
0.00197853
0.00188847
0.00154093
0.000944556
0.000410573
0.00041448
0.00108864
0.00116554
0.00102851
0.00082396
0.000715981
0.00067388
0.000662746
0.000664632
0.000680019
0.000694307
0.000700878
0.0007025
0.000700898
0.000696636
0.000691278
0.000686074
0.000682165
0.000680342
0.000680108
0.000683073
0.000689469
0.000699751
0.00071452
0.000734536
0.000760914
0.000795424
0.000840966
0.000902264
0.000986669
0.00110452
0.00126758
0.00148312
0.00174206
0.00198685
0.00209001
0.00205377
0.00172177
0.00109094
0.000484715
0.000401942
0.00106738
0.00113545
0.000993988
0.000796376
0.000698593
0.00066156
0.000652524
0.000656142
0.000670044
0.000679595
0.000682643
0.000682262
0.00067843
0.00067261
0.000666123
0.000659975
0.000654927
0.000651795
0.000650642
0.000651965
0.00065679
0.000665525
0.000678803
0.000697377
0.000722254
0.000754949
0.00079792
0.000855306
0.000934002
0.00104482
0.00120245
0.00142093
0.00170054
0.00200609
0.0021918
0.00220665
0.00189717
0.00121886
0.000554015
0.0003804
0.00103442
0.0010983
0.000959429
0.000774114
0.000683597
0.0006502
0.000642758
0.000647321
0.000659081
0.000665093
0.000666287
0.000664059
0.000658758
0.000651817
0.000644323
0.000637077
0.0006307
0.00062574
0.000623136
0.000622637
0.00062542
0.00063225
0.000643803
0.000660877
0.000684447
0.000715849
0.000757153
0.000811855
0.000886071
0.000990262
0.00114068
0.00135742
0.00165278
0.00200575
0.00227764
0.00234387
0.00207411
0.0013616
0.000625336
0.000354647
0.00099578
0.00105746
0.000927015
0.000755378
0.000670584
0.00063983
0.00063359
0.000638601
0.000647967
0.00065175
0.000651769
0.0006481
0.000641722
0.000633818
0.000625276
0.000616757
0.000608823
0.000602027
0.000597157
0.000594992
0.000595491
0.000600182
0.000609842
0.000625349
0.000647709
0.000678168
0.000718492
0.000771572
0.000842605
0.000941081
0.00108332
0.00129302
0.00159239
0.0019754
0.00233838
0.00246795
0.00224382
0.00149588
0.000694376
0.000324865
0.000955882
0.00101609
0.000897274
0.000739844
0.000659405
0.000630436
0.000625021
0.000630022
0.000637397
0.000639931
0.000638884
0.000634191
0.000626944
0.00061814
0.000608524
0.000598678
0.000589142
0.000580507
0.00057346
0.000569108
0.00056773
0.000570181
0.000577874
0.000591762
0.000612935
0.000642637
0.000682437
0.000734723
0.000803784
0.000897908
0.00103269
0.0012339
0.0015322
0.00193533
0.00237116
0.002578
0.00241322
0.00164279
0.000765739
0.0002942
0.000915087
0.000975386
0.000870301
0.000727211
0.000649948
0.000621931
0.000616968
0.000621682
0.000627612
0.000629353
0.00062744
0.000621993
0.000614026
0.000604409
0.000593794
0.000582721
0.00057173
0.000561432
0.000552545
0.000545988
0.000542918
0.000543334
0.00054912
0.000561378
0.00058134
0.000610332
0.000649848
0.000701886
0.000769891
0.000860811
0.000988849
0.00118034
0.00147312
0.00189176
0.00238341
0.00267719
0.00257521
0.00178744
0.000835782
0.00026108
0.00087682
0.000937488
0.000846377
0.000717246
0.000642231
0.000614286
0.000609369
0.000613603
0.000618516
0.000619704
0.00061715
0.000611159
0.000602639
0.000592368
0.000580951
0.000568905
0.000556772
0.000545174
0.000534844
0.000526623
0.000521799
0.000520671
0.00052472
0.000535401
0.00055412
0.000582365
0.000621672
0.000673789
0.000741428
0.000830173
0.000952415
0.00113368
0.00141659
0.00184279
0.00238464
0.00276712
0.00273488
0.00194231
0.000907787
0.000234886
0.000835375
0.000902133
0.000825463
0.000709431
0.000636271
0.000607361
0.000601982
0.000605673
0.000609903
0.000610701
0.00060772
0.000601395
0.000592531
0.000581849
0.000569926
0.000557271
0.000544419
0.00053199
0.000520711
0.000511414
0.000505178
0.000502818
0.000505445
0.000514676
0.000532153
0.000559593
0.000598681
0.000651055
0.000718823
0.000806259
0.00092371
0.00109486
0.00136452
0.00178856
0.00236494
0.00284788
0.00288787
0.00209914
0.000978738
0.000212578
0.000792784
0.000868479
0.000807998
0.000703827
0.000632208
0.000601625
0.00059508
0.000597812
0.000601492
0.000602008
0.000598937
0.000592484
0.000583517
0.000572721
0.000560651
0.000547804
0.000534703
0.000521946
0.000510237
0.000500388
0.000493332
0.00049001
0.000491569
0.000499505
0.000515805
0.000542434
0.000581292
0.000634038
0.00070231
0.000789153
0.000902816
0.00106451
0.00131932
0.00173497
0.00233528
0.00291599
0.00303876
0.00226504
0.00105082
0.000192775
0.000751012
0.000837025
0.000793022
0.000699711
0.000630012
0.000597195
0.000588686
0.000590069
0.000593156
0.00059346
0.000590571
0.00058425
0.000575443
0.000564854
0.000553012
0.000540395
0.000527498
0.000514887
0.000503225
0.000493278
0.000485928
0.000482161
0.000483077
0.000489813
0.000504966
0.000530822
0.000569527
0.000622991
0.000692542
0.000779847
0.000890437
0.00104245
0.00128141
0.00168365
0.00229978
0.00296749
0.00318524
0.0024355
0.00112164
0.000174578
0.000710357
0.000808022
0.000779163
0.000699116
0.000630487
0.000594119
0.000582937
0.000582814
0.000584786
0.000584955
0.00058242
0.000576529
0.000568156
0.00055809
0.000546829
0.000534824
0.000522534
0.00051048
0.000499273
0.000489621
0.000482375
0.000478612
0.000479381
0.00048538
0.000499679
0.000525049
0.000563698
0.000617753
0.000688383
0.00077634
0.000885115
0.00102864
0.00125073
0.00163507
0.00225943
0.0030033
0.00332662
0.00261362
0.0011925
0.000157506
0.000670903
0.000781294
0.000765816
0.000699985
0.000632593
0.000594138
0.000578509
0.000576026
0.000576768
0.000576594
0.000574403
0.000569178
0.000561501
0.000552232
0.000541858
0.000530799
0.000519463
0.000508315
0.000497908
0.000488842
0.000481924
0.000478276
0.000478967
0.000484471
0.000498148
0.000523209
0.000561835
0.000616302
0.000687713
0.000776315
0.000884194
0.00102235
0.00122693
0.00158941
0.00221475
0.00302061
0.00346185
0.00279749
0.00126147
0.000141203
0.000632195
0.000756373
0.000751904
0.000702196
0.00063727
0.000595671
0.00057631
0.000570283
0.000569475
0.000568727
0.000566608
0.000562057
0.000555304
0.00054708
0.000537854
0.000528002
0.000517883
0.000507926
0.000498439
0.000490076
0.000483722
0.000480521
0.000481333
0.000486584
0.000499704
0.000524485
0.000563304
0.000618791
0.000692052
0.000782418
0.000889534
0.00102094
0.00120928
0.00154638
0.00216468
0.00302631
0.00358928
0.00298802
0.00132894
0.000125562
0.000593883
0.00073284
0.000738906
0.00070577
0.000644567
0.000599851
0.000577055
0.000566859
0.000563333
0.00056165
0.000559324
0.000555297
0.000549535
0.000542492
0.00053457
0.000526097
0.000517393
0.000508627
0.000500285
0.000492961
0.000487394
0.000484838
0.000485933
0.00049132
0.000504422
0.00052936
0.000568699
0.000625285
0.000700228
0.000792306
0.00089942
0.00102516
0.00119732
0.00150575
0.00210597
0.00301685
0.00370524
0.00318148
0.00139338
0.000110439
0.000555164
0.000708951
0.000727092
0.000705846
0.000654429
0.000608346
0.000580497
0.000567367
0.000560545
0.00055634
0.00055311
0.00054927
0.000544346
0.00053847
0.000531912
0.000524919
0.000517692
0.000510322
0.000503312
0.000497103
0.000492439
0.000490782
0.000492287
0.000498112
0.000511667
0.00053708
0.000577114
0.000634759
0.000711157
0.00080474
0.000912038
0.00103312
0.00118965
0.00146823
0.00203937
0.00298391
0.00380539
0.00337654
0.00145496
9.5935e-05
0.000515196
0.000684076
0.000715313
0.000704491
0.000665854
0.000620854
0.000588592
0.000570902
0.000561685
0.000555909
0.000550879
0.000546097
0.000541178
0.00053601
0.000530604
0.000524967
0.00051887
0.000512902
0.000507211
0.000502203
0.000498605
0.000498056
0.000500092
0.000506639
0.000521103
0.000547252
0.000588057
0.000646553
0.000723909
0.000818399
0.000925641
0.0010426
0.00118462
0.00143298
0.00196635
0.002932
0.00388442
0.00356867
0.00151261
8.26073e-05
0.000475094
0.00065864
0.000703892
0.000701171
0.000678206
0.000636848
0.000603167
0.000580056
0.000566954
0.000558741
0.000552493
0.000546986
0.000541745
0.000536596
0.000531487
0.000526392
0.000521388
0.000516601
0.000512138
0.000508321
0.000506029
0.000506427
0.000509286
0.000516869
0.000532635
0.000559648
0.000601119
0.000660004
0.000737467
0.000831803
0.000938269
0.00105127
0.00117988
0.00139814
0.00188804
0.00286176
0.0039462
0.00375378
0.00156659
7.10744e-05
0.000434682
0.000632768
0.000689925
0.000696648
0.000686193
0.000656955
0.000624474
0.000598751
0.000580017
0.000568
0.000559249
0.000552116
0.000545907
0.000540328
0.00053523
0.000530505
0.000526204
0.000522269
0.000518803
0.000516036
0.00051519
0.000516315
0.000520236
0.000529166
0.000546299
0.000574133
0.000615914
0.000674393
0.000750717
0.00084337
0.000947529
0.00105564
0.00117332
0.00136315
0.00180707
0.00276495
0.00398306
0.00392161
0.00161647
6.19815e-05
0.000395358
0.000608244
0.000675168
0.000693465
0.000691287
0.00067817
0.000651969
0.000627146
0.00060625
0.0005891
0.000576033
0.00056596
0.000557678
0.000550711
0.000544804
0.000539754
0.000535478
0.000531856
0.000528943
0.000526979
0.000527199
0.000529054
0.000534021
0.000544405
0.000562527
0.000590837
0.000632204
0.000689096
0.000762666
0.000851822
0.000951804
0.00105655
0.00116505
0.00133016
0.00172692
0.00265446
0.00399939
0.00406529
0.00166365
5.53827e-05
0.000358933
0.000581328
0.000658645
0.000690306
0.000699916
0.000697343
0.000686462
0.000666655
0.000646415
0.000627516
0.000610669
0.000596055
0.000583853
0.000573813
0.000565669
0.000559041
0.000553737
0.000549476
0.000546274
0.000544417
0.000544912
0.000547254
0.000552867
0.000564126
0.000582605
0.000610562
0.000650384
0.000704216
0.000773274
0.000857134
0.000952691
0.00105421
0.00115944
0.0013116
0.00167421
0.00255669
0.00400244
0.00414638
0.00170894
5.22807e-05
0.000333324
0.000549897
0.000641378
0.00068596
0.000711307
0.000723335
0.000723014
0.000716846
0.000703007
0.000685362
0.000667268
0.000649845
0.00063391
0.00061986
0.000607759
0.000597609
0.00058922
0.000582437
0.000577345
0.000573761
0.000573693
0.000575549
0.000580776
0.000591582
0.00060949
0.000636054
0.000673201
0.000722784
0.000786205
0.000863877
0.000954535
0.00105404
0.00116037
0.00130803
0.00165567
0.00251376
0.00399283
0.00417604
0.00175918
5.5094e-05
0.000316392
0.000511206
0.000616046
0.000687266
0.000730377
0.000760709
0.000777241
0.000781776
0.00077815
0.000768065
0.000751767
0.00073338
0.000714465
0.000696124
0.000679049
0.000663694
0.000650271
0.000638899
0.000629916
0.0006232
0.000620311
0.000621379
0.000625552
0.000634932
0.000651813
0.000676776
0.00071148
0.000757556
0.000817029
0.000891169
0.000981837
0.00108774
0.00121341
0.00137736
0.00172129
0.00251532
0.00399077
0.00416635
0.00179081
6.58849e-05
0.000316789
0.000481868
0.000607498
0.000700412
0.000769595
0.00082091
0.000857833
0.00087938
0.000885035
0.000881175
0.000870012
0.000850936
0.000828867
0.000805832
0.000783299
0.000762418
0.000743739
0.000727869
0.000715487
0.000707019
0.000703387
0.000704637
0.00070954
0.000720408
0.000739284
0.000766384
0.000803895
0.000853453
0.00091898
0.00100151
0.00110886
0.00124007
0.00141357
0.00163212
0.0020096
0.00276007
0.00406
0.0040823
0.0018021
8.32392e-05
0.000338605
0.000495284
0.000636015
0.000758046
0.000860017
0.00093725
0.000990225
0.00102284
0.00103599
0.00103462
0.00102708
0.00101083
0.000990259
0.000968385
0.000947418
0.00092879
0.000912747
0.000901086
0.000893068
0.000892221
0.000895286
0.000903838
0.000921173
0.000946676
0.000982587
0.00102942
0.00109154
0.00116796
0.00126717
0.00138713
0.00154603
0.00173299
0.00198767
0.00228137
0.00272125
0.00333832
0.00423621
0.00401192
0.00179401
0.00012214
0.000429553
0.000607131
0.0007909
0.000955209
0.00109372
0.00120021
0.00127495
0.00132443
0.00135268
0.00136413
0.00136739
0.00136569
0.00136148
0.00135627
0.00135529
0.00135758
0.00136437
0.00137872
0.00140063
0.00143187
0.00147278
0.00152353
0.00158689
0.00166294
0.00175534
0.00186268
0.00199184
0.00213841
0.00231469
0.00250982
0.00274489
0.00300978
0.00334928
0.00370896
0.00414927
0.00451065
0.00462262
0.00394575
0.00171217
0.00021567
0.000715521
0.00109328
0.00146858
0.0017378
0.00194187
0.002097
0.00221299
0.00229988
0.00236608
0.00241813
0.00246243
0.00250508
0.0025499
0.00259868
0.00265412
0.00271775
0.00278996
0.00287208
0.00296519
0.00306942
0.00318673
0.00331611
0.00346057
0.00361725
0.00379134
0.00397737
0.00418262
0.00439978
0.00463468
0.00488641
0.00514041
0.00544053
0.00567016
0.00594649
0.00590807
0.00565914
0.00489681
0.00356275
0.00154592
0.000145825
0.000244411
0.000353435
0.000475176
0.000589576
0.000690785
0.000777871
0.000851452
0.000912133
0.000961819
0.0010011
0.00103219
0.00105608
0.00107523
0.00109021
0.00110287
0.00111374
0.00112397
0.0011341
0.00114445
0.00115638
0.00116866
0.00118446
0.00119999
0.00122149
0.00124128
0.00127029
0.00129504
0.00133321
0.0013629
0.00141024
0.00144356
0.00149513
0.00153187
0.00160274
0.00165061
0.00171025
0.00170281
0.00163777
0.0013658
)
;

boundaryField
{
    movingWall
    {
        type            kqRWallFunction;
        value           nonuniform List<scalar> 
40
(
0.000145825
0.000244411
0.000353435
0.000475176
0.000589576
0.000690785
0.000777871
0.000851452
0.000912133
0.000961819
0.0010011
0.00103219
0.00105608
0.00107523
0.00109021
0.00110287
0.00111374
0.00112397
0.0011341
0.00114445
0.00115638
0.00116866
0.00118446
0.00119999
0.00122149
0.00124128
0.00127029
0.00129504
0.00133321
0.0013629
0.00141024
0.00144356
0.00149513
0.00153187
0.00160274
0.00165061
0.00171025
0.00170281
0.00163777
0.0013658
)
;
    }
    fixedWalls
    {
        type            kqRWallFunction;
        value           nonuniform List<scalar> 
120
(
1.38754e-06
6.41021e-06
1.71383e-05
3.72459e-05
6.98886e-05
0.000119322
0.000183348
0.000253912
0.000316727
0.000366684
0.000399225
0.000419166
0.00041959
0.00041448
0.000401942
0.0003804
0.000354647
0.000324865
0.0002942
0.00026108
0.000234886
0.000212578
0.000192775
0.000174578
0.000157506
0.000141203
0.000125562
0.000110439
9.5935e-05
8.26073e-05
7.10744e-05
6.19815e-05
5.53827e-05
5.22807e-05
5.5094e-05
6.58849e-05
8.32392e-05
0.00012214
0.00021567
0.000145825
2.04884e-06
4.6402e-06
4.2172e-06
3.3344e-06
3.87015e-06
6.71692e-06
1.40408e-05
3.01379e-05
7.95303e-05
0.000163717
0.00025287
0.000337055
0.000410573
0.000484715
0.000554015
0.000625336
0.000694376
0.000765739
0.000835782
0.000907787
0.000978738
0.00105082
0.00112164
0.0011925
0.00126147
0.00132894
0.00139338
0.00145496
0.00151261
0.00156659
0.00161647
0.00166365
0.00170894
0.00175918
0.00179081
0.0018021
0.00179401
0.00171217
0.00154592
0.0013658
1.38754e-06
5.71846e-06
1.20096e-05
1.48612e-05
1.58284e-05
1.71372e-05
2.01367e-05
2.45884e-05
2.91214e-05
3.39847e-05
4.47292e-05
6.28279e-05
7.87561e-05
9.14022e-05
0.000107996
0.000128465
0.000150817
0.000173432
0.000197973
0.00022355
0.000251729
0.000282276
0.000316871
0.0003563
0.000403584
0.000454264
0.000499902
0.00054323
0.000577333
0.000596462
0.00060347
0.000582965
0.000523176
0.000425446
0.000301877
0.000174186
7.98661e-05
3.19338e-05
1.00009e-05
2.04884e-06
)
;
    }
    frontAndBack
    {
        type            empty;
    }
}


// ************************************************************************* //
