/*--------------------------------*- C++ -*----------------------------------*\
  =========                 |
  \\      /  F ield         | OpenFOAM: The Open Source CFD Toolbox
   \\    /   O peration     | Website:  https://openfoam.org
    \\  /    A nd           | Version:  12
     \\/     M anipulation  |
\*---------------------------------------------------------------------------*/
FoamFile
{
    format      ascii;
    class       volScalarField;
    location    "3.5";
    object      nut;
}
// * * * * * * * * * * * * * * * * * * * * * * * * * * * * * * * * * * * * * //

dimensions      [0 2 -1 0 0 0 0];

internalField   nonuniform List<scalar> 
1600
(
9.74644e-09
4.01535e-08
8.43192e-08
1.04297e-07
1.11046e-07
1.20255e-07
1.41401e-07
1.72851e-07
2.04843e-07
2.39095e-07
3.14754e-07
4.42231e-07
5.54271e-07
6.43238e-07
7.60017e-07
9.04121e-07
1.06147e-06
1.22069e-06
1.39347e-06
1.57356e-06
1.77195e-06
1.98702e-06
2.23058e-06
2.50816e-06
2.84104e-06
3.19768e-06
3.51888e-06
3.82377e-06
4.0637e-06
4.19822e-06
4.24747e-06
4.10286e-06
3.68205e-06
2.99392e-06
2.12369e-06
1.22512e-06
5.61755e-07
2.24589e-07
7.03189e-08
1.44034e-08
4.50362e-08
1.34093e-06
4.07105e-06
5.47628e-06
5.9469e-06
5.88819e-06
5.89084e-06
5.82423e-06
5.529e-06
5.27009e-06
5.7259e-06
6.83566e-06
8.04315e-06
8.87553e-06
9.93578e-06
1.12525e-05
1.28393e-05
1.43376e-05
1.59642e-05
1.75196e-05
1.90956e-05
2.0585e-05
2.20887e-05
2.34086e-05
2.43894e-05
2.51581e-05
2.59663e-05
2.65295e-05
2.68054e-05
2.65097e-05
2.62547e-05
2.43823e-05
2.19245e-05
1.84082e-05
1.38099e-05
9.25045e-06
4.56587e-06
1.87838e-06
6.80677e-07
3.26001e-08
1.2049e-07
3.36675e-06
8.97122e-06
1.17349e-05
1.27092e-05
1.33133e-05
1.4216e-05
1.4767e-05
1.50635e-05
1.53968e-05
1.55368e-05
1.53194e-05
1.57332e-05
1.61566e-05
1.78871e-05
2.00263e-05
2.21604e-05
2.42811e-05
2.64041e-05
2.84906e-05
3.03285e-05
3.19835e-05
3.31884e-05
3.40835e-05
3.47153e-05
3.51499e-05
3.53257e-05
3.51559e-05
3.45388e-05
3.30855e-05
3.11183e-05
2.92413e-05
2.52801e-05
2.1186e-05
1.48328e-05
9.4433e-06
4.36569e-06
2.21645e-06
8.58886e-07
2.96195e-08
2.62005e-07
6.71938e-06
1.42333e-05
1.71192e-05
1.80524e-05
1.88495e-05
1.97313e-05
2.00069e-05
1.99746e-05
1.84513e-05
1.74672e-05
1.87118e-05
2.08265e-05
2.33079e-05
2.64061e-05
2.87448e-05
3.11999e-05
3.33455e-05
3.54755e-05
3.69212e-05
3.82021e-05
3.90284e-05
3.95678e-05
3.98742e-05
3.99827e-05
3.98385e-05
3.93894e-05
3.86269e-05
3.74978e-05
3.58127e-05
3.35901e-05
3.12157e-05
2.73934e-05
2.36656e-05
1.86591e-05
1.17933e-05
4.48361e-06
1.82964e-06
7.09937e-07
2.34072e-08
4.91788e-07
1.13941e-05
1.96399e-05
2.18284e-05
2.23868e-05
2.30408e-05
2.29555e-05
2.26594e-05
2.06381e-05
2.01186e-05
2.25741e-05
2.50183e-05
2.7846e-05
3.07501e-05
3.36514e-05
3.60136e-05
3.85155e-05
4.02996e-05
4.18416e-05
4.28758e-05
4.36903e-05
4.41834e-05
4.44834e-05
4.44865e-05
4.42618e-05
4.3778e-05
4.30277e-05
4.1936e-05
4.04411e-05
3.84636e-05
3.60251e-05
3.35506e-05
2.99876e-05
2.59115e-05
2.15389e-05
1.62064e-05
8.79309e-06
2.61953e-06
6.99083e-07
2.71736e-08
8.39757e-07
1.62697e-05
2.46383e-05
2.59223e-05
2.59049e-05
2.54682e-05
2.5066e-05
2.30787e-05
2.24849e-05
2.51656e-05
2.82416e-05
3.12166e-05
3.40939e-05
3.6987e-05
3.98326e-05
4.2287e-05
4.42667e-05
4.5808e-05
4.70548e-05
4.79434e-05
4.85962e-05
4.89692e-05
4.91308e-05
4.90727e-05
4.88724e-05
4.85818e-05
4.81942e-05
4.7644e-05
4.67072e-05
4.47018e-05
4.20292e-05
3.93258e-05
3.57479e-05
3.0563e-05
2.4538e-05
1.89129e-05
1.24168e-05
3.91184e-06
9.78977e-07
4.71916e-08
1.29043e-06
2.03875e-05
2.88804e-05
2.92085e-05
2.80675e-05
2.74489e-05
2.53416e-05
2.43891e-05
2.70123e-05
3.05278e-05
3.36795e-05
3.63355e-05
3.9268e-05
4.25746e-05
4.50976e-05
4.71869e-05
4.88622e-05
5.01862e-05
5.12426e-05
5.20412e-05
5.26041e-05
5.29186e-05
5.30046e-05
5.2851e-05
5.25194e-05
5.20627e-05
5.15064e-05
5.0894e-05
5.02997e-05
4.96526e-05
4.76793e-05
4.43261e-05
4.17444e-05
3.77198e-05
3.12814e-05
2.28665e-05
1.49708e-05
7.40161e-06
1.57952e-06
9.87262e-08
1.78705e-06
2.40574e-05
3.19283e-05
3.12831e-05
3.02836e-05
2.77221e-05
2.62592e-05
2.80638e-05
3.18939e-05
3.52783e-05
3.77125e-05
4.07798e-05
4.41975e-05
4.70445e-05
4.91499e-05
5.10219e-05
5.26335e-05
5.40937e-05
5.52458e-05
5.605e-05
5.65013e-05
5.66244e-05
5.64997e-05
5.62322e-05
5.58333e-05
5.53125e-05
5.471e-05
5.40347e-05
5.3252e-05
5.2364e-05
5.1588e-05
4.92511e-05
4.51313e-05
4.22557e-05
3.75532e-05
2.97638e-05
1.95833e-05
9.38661e-06
2.05353e-06
2.12045e-07
2.22899e-06
2.6554e-05
3.36857e-05
3.33903e-05
3.07224e-05
2.84877e-05
2.85538e-05
3.24489e-05
3.6112e-05
3.88665e-05
4.15557e-05
4.49643e-05
4.81502e-05
5.0573e-05
5.28492e-05
5.50001e-05
5.68089e-05
5.81977e-05
5.90494e-05
5.96267e-05
5.99338e-05
6.0025e-05
5.9908e-05
5.9568e-05
5.90343e-05
5.83533e-05
5.7589e-05
5.6799e-05
5.60095e-05
5.51724e-05
5.41237e-05
5.30077e-05
4.98703e-05
4.58098e-05
4.23554e-05
3.56766e-05
2.55133e-05
1.40172e-05
3.52634e-06
5.59827e-07
2.58036e-06
2.82187e-05
3.56267e-05
3.52178e-05
3.14778e-05
2.9799e-05
3.23482e-05
3.62599e-05
3.95179e-05
4.18565e-05
4.50626e-05
4.84871e-05
5.16343e-05
5.43722e-05
5.67867e-05
5.88159e-05
6.0311e-05
6.14694e-05
6.23708e-05
6.3155e-05
6.36341e-05
6.38099e-05
6.36941e-05
6.32716e-05
6.25682e-05
6.16366e-05
6.05607e-05
5.94475e-05
5.84019e-05
5.74802e-05
5.66236e-05
5.55856e-05
5.3808e-05
4.9251e-05
4.62585e-05
4.1041e-05
3.07994e-05
1.7935e-05
5.9952e-06
1.15244e-06
2.80917e-06
2.9181e-05
3.68897e-05
3.57943e-05
3.24999e-05
3.19615e-05
3.57257e-05
3.93575e-05
4.21547e-05
4.47948e-05
4.84433e-05
5.19908e-05
5.51693e-05
5.78586e-05
6.00049e-05
6.18822e-05
6.35582e-05
6.50135e-05
6.61412e-05
6.69909e-05
6.78168e-05
6.80914e-05
6.80147e-05
6.75396e-05
6.66771e-05
6.54667e-05
6.39926e-05
6.23889e-05
6.08266e-05
5.94691e-05
5.83928e-05
5.74938e-05
5.6416e-05
5.35798e-05
4.89771e-05
4.54349e-05
3.65074e-05
2.28922e-05
7.90778e-06
1.77972e-06
2.9493e-06
2.97685e-05
3.81212e-05
3.67467e-05
3.35605e-05
3.48245e-05
3.85163e-05
4.19186e-05
4.45451e-05
4.77784e-05
5.16528e-05
5.51913e-05
5.81293e-05
6.05712e-05
6.28791e-05
6.50969e-05
6.70416e-05
6.88326e-05
7.02425e-05
7.12434e-05
7.22645e-05
7.27151e-05
7.27006e-05
7.22189e-05
7.12561e-05
6.98257e-05
6.79878e-05
6.58716e-05
6.36839e-05
6.16824e-05
6.00886e-05
5.89457e-05
5.79646e-05
5.62887e-05
5.15587e-05
4.84608e-05
4.10254e-05
2.73937e-05
1.08294e-05
2.37183e-06
2.95194e-06
2.97626e-05
3.84612e-05
3.76293e-05
3.49656e-05
3.72488e-05
4.08333e-05
4.41641e-05
4.68121e-05
5.04838e-05
5.44004e-05
5.77292e-05
6.05533e-05
6.32744e-05
6.59341e-05
6.8414e-05
7.06687e-05
7.27425e-05
7.44632e-05
7.55784e-05
7.66886e-05
7.73026e-05
7.73549e-05
7.69055e-05
7.5922e-05
7.43858e-05
7.2313e-05
6.9789e-05
6.70058e-05
6.42741e-05
6.19657e-05
6.03601e-05
5.94283e-05
5.86442e-05
5.50652e-05
5.07992e-05
4.51025e-05
3.17355e-05
1.32219e-05
2.88876e-06
2.91591e-06
2.95946e-05
3.89443e-05
3.83522e-05
3.64514e-05
3.91995e-05
4.27725e-05
4.60743e-05
4.8924e-05
5.28318e-05
5.66874e-05
5.98959e-05
6.29579e-05
6.60382e-05
6.89765e-05
7.1736e-05
7.42585e-05
7.65211e-05
7.84768e-05
7.96545e-05
8.07313e-05
8.14421e-05
8.154e-05
8.11398e-05
8.02067e-05
7.86948e-05
7.65687e-05
7.38424e-05
7.06374e-05
6.72391e-05
6.40941e-05
6.1677e-05
6.02185e-05
5.9444e-05
5.75062e-05
5.25795e-05
4.82602e-05
3.55919e-05
1.59407e-05
3.41006e-06
2.82755e-06
2.91493e-05
3.90009e-05
3.894e-05
3.78219e-05
4.07749e-05
4.43901e-05
4.77283e-05
5.08283e-05
5.48784e-05
5.85888e-05
6.19197e-05
6.53649e-05
6.87066e-05
7.19092e-05
7.49035e-05
7.76101e-05
7.99559e-05
8.19415e-05
8.32113e-05
8.41064e-05
8.48209e-05
8.49178e-05
8.45549e-05
8.37128e-05
8.23324e-05
8.03339e-05
7.76519e-05
7.43017e-05
7.04753e-05
6.66154e-05
6.33515e-05
6.11896e-05
6.0038e-05
5.88706e-05
5.44089e-05
5.07439e-05
3.9073e-05
1.82602e-05
3.89718e-06
2.67587e-06
2.84364e-05
3.87798e-05
3.93629e-05
3.90127e-05
4.20392e-05
4.57273e-05
4.91644e-05
5.24832e-05
5.65991e-05
6.02798e-05
6.39023e-05
6.76066e-05
7.11886e-05
7.46013e-05
7.77496e-05
8.05364e-05
8.28819e-05
8.47364e-05
8.60139e-05
8.66811e-05
8.72803e-05
8.7312e-05
8.69485e-05
8.62004e-05
8.50132e-05
8.32805e-05
8.08657e-05
7.76628e-05
7.3712e-05
6.93523e-05
6.52879e-05
6.23566e-05
6.09518e-05
6.04438e-05
5.63253e-05
5.24943e-05
4.19066e-05
2.07512e-05
4.3985e-06
2.49458e-06
2.75827e-05
3.83283e-05
3.96514e-05
3.99267e-05
4.30339e-05
4.68234e-05
5.03767e-05
5.39159e-05
5.80251e-05
6.18018e-05
6.57174e-05
6.96146e-05
7.33832e-05
7.69334e-05
8.01495e-05
8.29236e-05
8.51755e-05
8.68628e-05
8.79451e-05
8.84826e-05
8.88029e-05
8.87126e-05
8.82964e-05
8.76136e-05
8.66327e-05
8.52427e-05
8.32591e-05
8.04641e-05
7.67176e-05
7.21576e-05
6.74068e-05
6.34992e-05
6.12655e-05
6.05249e-05
5.82113e-05
5.38069e-05
4.42777e-05
2.29624e-05
4.88367e-06
2.28495e-06
2.66261e-05
3.76987e-05
3.97866e-05
4.0596e-05
4.3789e-05
4.76893e-05
5.13706e-05
5.50965e-05
5.92085e-05
6.31565e-05
6.72658e-05
7.13135e-05
7.52039e-05
7.88195e-05
8.20309e-05
8.47253e-05
8.68259e-05
8.83024e-05
8.91763e-05
8.9475e-05
8.9527e-05
8.92466e-05
8.8726e-05
8.80638e-05
8.72629e-05
8.62292e-05
8.47599e-05
8.25571e-05
7.93107e-05
7.49104e-05
6.97763e-05
6.50208e-05
6.19057e-05
6.06492e-05
5.94263e-05
5.46237e-05
4.63455e-05
2.51987e-05
5.38515e-06
2.06913e-06
2.55936e-05
3.69087e-05
3.97481e-05
4.10449e-05
4.43167e-05
4.83198e-05
5.21405e-05
5.60211e-05
6.01642e-05
6.42695e-05
6.84971e-05
7.26407e-05
7.65898e-05
8.0211e-05
8.33678e-05
8.59471e-05
8.78779e-05
8.91436e-05
8.97908e-05
8.9813e-05
8.96153e-05
8.91223e-05
8.84649e-05
8.77806e-05
8.71124e-05
8.63979e-05
8.54449e-05
8.39161e-05
8.13697e-05
7.74384e-05
7.22291e-05
6.67596e-05
6.26936e-05
6.09151e-05
6.00087e-05
5.54441e-05
4.80492e-05
2.71979e-05
5.87725e-06
1.83608e-06
2.45793e-05
3.60233e-05
3.95591e-05
4.13269e-05
4.46444e-05
4.87271e-05
5.26863e-05
5.66882e-05
6.08732e-05
6.5087e-05
6.93717e-05
7.35545e-05
7.75082e-05
8.10915e-05
8.41664e-05
8.66218e-05
8.83916e-05
8.94663e-05
8.9899e-05
8.97262e-05
8.92252e-05
8.85778e-05
8.77753e-05
8.70439e-05
8.64599e-05
8.59993e-05
8.55022e-05
8.46327e-05
8.28741e-05
7.96433e-05
7.4679e-05
6.87165e-05
6.36567e-05
6.12037e-05
6.06924e-05
5.62411e-05
4.95042e-05
2.91891e-05
6.3831e-06
1.65175e-06
2.32373e-05
3.50152e-05
3.92168e-05
4.13832e-05
4.4762e-05
4.88741e-05
5.29691e-05
5.70835e-05
6.13136e-05
6.55791e-05
6.98647e-05
7.40344e-05
7.79498e-05
8.14671e-05
8.44508e-05
8.67927e-05
8.84294e-05
8.93527e-05
8.96149e-05
8.93135e-05
8.85923e-05
8.77951e-05
8.68889e-05
8.61116e-05
8.55769e-05
8.53005e-05
8.51672e-05
8.4872e-05
8.38819e-05
8.14704e-05
7.70178e-05
7.08244e-05
6.47729e-05
6.13165e-05
6.06594e-05
5.70965e-05
5.06756e-05
3.10202e-05
6.88143e-06
1.49478e-06
2.17275e-05
3.37411e-05
3.8815e-05
4.13801e-05
4.47272e-05
4.88539e-05
5.30372e-05
5.71998e-05
6.14525e-05
6.57107e-05
6.9977e-05
7.40845e-05
7.79252e-05
8.13588e-05
8.42528e-05
8.65018e-05
8.80428e-05
8.8867e-05
8.90258e-05
8.86274e-05
8.78429e-05
8.68997e-05
8.59715e-05
8.51671e-05
8.46656e-05
8.45182e-05
8.46572e-05
8.48205e-05
8.45023e-05
8.29169e-05
7.91604e-05
7.3023e-05
6.61239e-05
6.1532e-05
6.03288e-05
5.78935e-05
5.17566e-05
3.27814e-05
7.3877e-06
1.35547e-06
2.01924e-05
3.21459e-05
3.82027e-05
4.09855e-05
4.43583e-05
4.85616e-05
5.28512e-05
5.70379e-05
6.12849e-05
6.54874e-05
6.971e-05
7.37235e-05
7.74591e-05
8.07962e-05
8.36045e-05
8.57784e-05
8.72568e-05
8.8034e-05
8.81624e-05
8.77482e-05
8.69418e-05
8.59035e-05
8.50129e-05
8.41633e-05
8.36488e-05
8.36352e-05
8.40245e-05
8.4581e-05
8.48538e-05
8.4094e-05
8.12096e-05
7.51862e-05
6.76454e-05
6.19172e-05
5.99711e-05
5.84267e-05
5.27451e-05
3.43932e-05
7.88498e-06
1.22746e-06
1.86135e-05
3.04438e-05
3.73157e-05
4.07496e-05
4.40863e-05
4.79728e-05
5.24055e-05
5.665e-05
6.07846e-05
6.49097e-05
6.90618e-05
7.29709e-05
7.65828e-05
7.98116e-05
8.25119e-05
8.45862e-05
8.60149e-05
8.68007e-05
8.69895e-05
8.6667e-05
8.59553e-05
8.49938e-05
8.42628e-05
8.34519e-05
8.29021e-05
8.30294e-05
8.36105e-05
8.44271e-05
8.50664e-05
8.48255e-05
8.26657e-05
7.72245e-05
6.91917e-05
6.24419e-05
5.96941e-05
5.86691e-05
5.36319e-05
3.59375e-05
8.38253e-06
1.10741e-06
1.7027e-05
2.86154e-05
3.60021e-05
4.03872e-05
4.36117e-05
4.75523e-05
5.15827e-05
5.59693e-05
6.00568e-05
6.40411e-05
6.80691e-05
7.18666e-05
7.53231e-05
7.83608e-05
8.09641e-05
8.30822e-05
8.46027e-05
8.55051e-05
8.58197e-05
8.55983e-05
8.49467e-05
8.4016e-05
8.34316e-05
8.2807e-05
8.24219e-05
8.26733e-05
8.33781e-05
8.43443e-05
8.51807e-05
8.52215e-05
8.34571e-05
7.90086e-05
7.06359e-05
6.29728e-05
5.94912e-05
5.86477e-05
5.43545e-05
3.74367e-05
8.86663e-06
9.92774e-07
1.54542e-05
2.67646e-05
3.44677e-05
3.9732e-05
4.29662e-05
4.68378e-05
5.08324e-05
5.48418e-05
5.89647e-05
6.29149e-05
6.67729e-05
7.03656e-05
7.36402e-05
7.66637e-05
7.92823e-05
8.14007e-05
8.29484e-05
8.39288e-05
8.43113e-05
8.41792e-05
8.36687e-05
8.28728e-05
8.24197e-05
8.19241e-05
8.16293e-05
8.20039e-05
8.28779e-05
8.40625e-05
8.51891e-05
8.56637e-05
8.44959e-05
8.01017e-05
7.18899e-05
6.34127e-05
5.92516e-05
5.85847e-05
5.49478e-05
3.88914e-05
9.34023e-06
8.82812e-07
1.39324e-05
2.49777e-05
3.27882e-05
3.89251e-05
4.22302e-05
4.58389e-05
5.00304e-05
5.38182e-05
5.75816e-05
6.13369e-05
6.50283e-05
6.85408e-05
7.17905e-05
7.47199e-05
7.72378e-05
7.92897e-05
8.08659e-05
8.18886e-05
8.23943e-05
8.24568e-05
8.21621e-05
8.15486e-05
8.12331e-05
8.09028e-05
8.07696e-05
8.12924e-05
8.23369e-05
8.37026e-05
8.49994e-05
8.56543e-05
8.48096e-05
8.10442e-05
7.29428e-05
6.36914e-05
5.87627e-05
5.82022e-05
5.53582e-05
4.02715e-05
9.79241e-06
7.76532e-07
1.24728e-05
2.31042e-05
3.09962e-05
3.74897e-05
4.14339e-05
4.48947e-05
4.88081e-05
5.28813e-05
5.64397e-05
5.98152e-05
6.32368e-05
6.65727e-05
6.96787e-05
7.24517e-05
7.48851e-05
7.69215e-05
7.85221e-05
7.96172e-05
8.02655e-05
8.05028e-05
8.04172e-05
8.00252e-05
7.98465e-05
7.96968e-05
7.97623e-05
8.04409e-05
8.1641e-05
8.31495e-05
8.45484e-05
8.52677e-05
8.45571e-05
8.12091e-05
7.32672e-05
6.37181e-05
5.79815e-05
5.76283e-05
5.56261e-05
4.15654e-05
1.02245e-05
6.74563e-07
1.11097e-05
2.13858e-05
2.92032e-05
3.57725e-05
4.04688e-05
4.39018e-05
4.74813e-05
5.1455e-05
5.52719e-05
5.86811e-05
6.17905e-05
6.47644e-05
6.75628e-05
7.01571e-05
7.24886e-05
7.44848e-05
7.60112e-05
7.71677e-05
7.79252e-05
7.83236e-05
7.84388e-05
7.82896e-05
7.82398e-05
7.827e-05
7.85495e-05
7.93687e-05
8.068e-05
8.22635e-05
8.36794e-05
8.43495e-05
8.3605e-05
8.04764e-05
7.30507e-05
6.34171e-05
5.68407e-05
5.67206e-05
5.57239e-05
4.27445e-05
1.0629e-05
5.80889e-07
9.92729e-06
1.99396e-05
2.73692e-05
3.38732e-05
3.94218e-05
4.28834e-05
4.63213e-05
4.98523e-05
5.35952e-05
5.71092e-05
6.02435e-05
6.30723e-05
6.56738e-05
6.80385e-05
7.01393e-05
7.1939e-05
7.34252e-05
7.45972e-05
7.54301e-05
7.59629e-05
7.62661e-05
7.63084e-05
7.63912e-05
7.66017e-05
7.70845e-05
7.7992e-05
7.93293e-05
8.08746e-05
8.21838e-05
8.26799e-05
8.17585e-05
7.86757e-05
7.19402e-05
6.23197e-05
5.53268e-05
5.55115e-05
5.56423e-05
4.3812e-05
1.10076e-05
4.99794e-07
8.95035e-06
1.87585e-05
2.53756e-05
3.17946e-05
3.7689e-05
4.19161e-05
4.52716e-05
4.85872e-05
5.18293e-05
5.51631e-05
5.82512e-05
6.10188e-05
6.3499e-05
6.5716e-05
6.76742e-05
6.93626e-05
7.07974e-05
7.19575e-05
7.28272e-05
7.34599e-05
7.39274e-05
7.40675e-05
7.42912e-05
7.4679e-05
7.52629e-05
7.61725e-05
7.7403e-05
7.87431e-05
7.97725e-05
7.995e-05
7.86832e-05
7.53758e-05
6.93818e-05
6.0056e-05
5.35008e-05
5.3889e-05
5.53011e-05
4.46754e-05
1.13575e-05
4.35763e-07
8.32089e-06
1.78272e-05
2.39888e-05
3.01244e-05
3.57076e-05
4.07573e-05
4.43074e-05
4.75603e-05
5.06496e-05
5.35047e-05
5.6265e-05
5.88752e-05
6.12299e-05
6.33251e-05
6.51725e-05
6.67747e-05
6.81438e-05
6.92747e-05
7.01414e-05
7.0859e-05
7.13668e-05
7.15874e-05
7.18988e-05
7.23841e-05
7.29244e-05
7.3678e-05
7.45989e-05
7.55091e-05
7.60433e-05
7.57605e-05
7.40336e-05
7.07063e-05
6.54509e-05
5.71689e-05
5.07495e-05
5.1886e-05
5.47633e-05
4.53325e-05
1.16885e-05
3.892e-07
8.05719e-06
1.70735e-05
2.30194e-05
2.87647e-05
3.41756e-05
3.91082e-05
4.3491e-05
4.68019e-05
4.97725e-05
5.24808e-05
5.49465e-05
5.7175e-05
5.9221e-05
6.10853e-05
6.27716e-05
6.4257e-05
6.55433e-05
6.66141e-05
6.74232e-05
6.81623e-05
6.85646e-05
6.87983e-05
6.90689e-05
6.94356e-05
6.97137e-05
7.00569e-05
7.03996e-05
7.06302e-05
7.04575e-05
6.96209e-05
6.76402e-05
6.43862e-05
5.99137e-05
5.33612e-05
4.82986e-05
4.9544e-05
5.42279e-05
4.51779e-05
1.20063e-05
3.67165e-07
8.35989e-06
1.66567e-05
2.25607e-05
2.7521e-05
3.29974e-05
3.80137e-05
4.23138e-05
4.63163e-05
4.95232e-05
5.21389e-05
5.44298e-05
5.64318e-05
5.81968e-05
5.97594e-05
6.11315e-05
6.23361e-05
6.33529e-05
6.41848e-05
6.47691e-05
6.52205e-05
6.53743e-05
6.53714e-05
6.53007e-05
6.5132e-05
6.48366e-05
6.44816e-05
6.39986e-05
6.33915e-05
6.24307e-05
6.11131e-05
5.90023e-05
5.61408e-05
5.23308e-05
4.79186e-05
4.54127e-05
4.82959e-05
5.33582e-05
4.46589e-05
1.2359e-05
3.86786e-07
9.09451e-06
1.64778e-05
2.20803e-05
2.76211e-05
3.24505e-05
3.7463e-05
4.1937e-05
4.57844e-05
4.92211e-05
5.21949e-05
5.4465e-05
5.63566e-05
5.79202e-05
5.91929e-05
6.01937e-05
6.09592e-05
6.14056e-05
6.15414e-05
6.14234e-05
6.10434e-05
6.03777e-05
5.99125e-05
5.91221e-05
5.80179e-05
5.69752e-05
5.58361e-05
5.45637e-05
5.33079e-05
5.18529e-05
5.04958e-05
4.87522e-05
4.70302e-05
4.47239e-05
4.26697e-05
4.20835e-05
4.57143e-05
5.18145e-05
4.39142e-05
1.25799e-05
4.62811e-07
1.09709e-05
1.78683e-05
2.36264e-05
2.8428e-05
3.34826e-05
3.8483e-05
4.32053e-05
4.74514e-05
5.07476e-05
5.35246e-05
5.57161e-05
5.69692e-05
5.7659e-05
5.78813e-05
5.77026e-05
5.72213e-05
5.64422e-05
5.54685e-05
5.43576e-05
5.29553e-05
5.17528e-05
5.04808e-05
4.88018e-05
4.7134e-05
4.55421e-05
4.41162e-05
4.27677e-05
4.16433e-05
4.05699e-05
3.99894e-05
3.93842e-05
3.94088e-05
3.92104e-05
3.99309e-05
4.11407e-05
4.58326e-05
5.02276e-05
4.19587e-05
1.26585e-05
5.8517e-07
1.27364e-05
1.96452e-05
2.49763e-05
3.01914e-05
3.5143e-05
3.96563e-05
4.33938e-05
4.65214e-05
4.8567e-05
4.99869e-05
5.1061e-05
5.13321e-05
5.10191e-05
5.02882e-05
4.92286e-05
4.79944e-05
4.63475e-05
4.48569e-05
4.32765e-05
4.17075e-05
4.00367e-05
3.84266e-05
3.703e-05
3.58274e-05
3.48131e-05
3.40981e-05
3.36394e-05
3.358e-05
3.38444e-05
3.45766e-05
3.55419e-05
3.71421e-05
3.88254e-05
4.10736e-05
4.35246e-05
4.74164e-05
4.81781e-05
4.01897e-05
1.25989e-05
8.59345e-07
1.58685e-05
2.09891e-05
2.56301e-05
3.00735e-05
3.39464e-05
3.71098e-05
3.93865e-05
4.0991e-05
4.1824e-05
4.2032e-05
4.18896e-05
4.14296e-05
4.06863e-05
3.96987e-05
3.86995e-05
3.76329e-05
3.65227e-05
3.55524e-05
3.47039e-05
3.40255e-05
3.34891e-05
3.31114e-05
3.29303e-05
3.29664e-05
3.32258e-05
3.37132e-05
3.44662e-05
3.54548e-05
3.67578e-05
3.83056e-05
4.02169e-05
4.23774e-05
4.46498e-05
4.70581e-05
4.90232e-05
5.05607e-05
4.64831e-05
3.67943e-05
1.20225e-05
1.51857e-06
1.87109e-05
2.18957e-05
2.63999e-05
2.98821e-05
3.26048e-05
3.46787e-05
3.61645e-05
3.71927e-05
3.78665e-05
3.82387e-05
3.84193e-05
3.84936e-05
3.85283e-05
3.85243e-05
3.85446e-05
3.86035e-05
3.87025e-05
3.88689e-05
3.91101e-05
3.9439e-05
3.98598e-05
4.03758e-05
4.09918e-05
4.16959e-05
4.25187e-05
4.34096e-05
4.44479e-05
4.5518e-05
4.67686e-05
4.80193e-05
4.94241e-05
5.09461e-05
5.22724e-05
5.33737e-05
5.28002e-05
5.05485e-05
4.40837e-05
2.90948e-05
1.08517e-05
1.02686e-06
1.72051e-06
2.48627e-06
3.34124e-06
4.14448e-06
4.85486e-06
5.46596e-06
5.98206e-06
6.40745e-06
6.75551e-06
7.03056e-06
7.24796e-06
7.41489e-06
7.54859e-06
7.65312e-06
7.74132e-06
7.81722e-06
7.88844e-06
7.95939e-06
8.03148e-06
8.11535e-06
8.20095e-06
8.31202e-06
8.42059e-06
8.57162e-06
8.71018e-06
8.91393e-06
9.08714e-06
9.35531e-06
9.56297e-06
9.89552e-06
1.01294e-05
1.04907e-05
1.07483e-05
1.12475e-05
1.15829e-05
1.20041e-05
1.19517e-05
1.14965e-05
9.58812e-06
)
;

boundaryField
{
    movingWall
    {
        type            nutkWallFunction;
        Cmu             0.09;
        kappa           0.41;
        E               9.8;
        value           uniform 0;
    }
    fixedWalls
    {
        type            nutkWallFunction;
        Cmu             0.09;
        kappa           0.41;
        E               9.8;
        value           uniform 0;
    }
    frontAndBack
    {
        type            empty;
    }
}


// ************************************************************************* //
