/*--------------------------------*- C++ -*----------------------------------*\
  =========                 |
  \\      /  F ield         | OpenFOAM: The Open Source CFD Toolbox
   \\    /   O peration     | Website:  https://openfoam.org
    \\  /    A nd           | Version:  12
     \\/     M anipulation  |
\*---------------------------------------------------------------------------*/
FoamFile
{
    format      ascii;
    class       volScalarField;
    location    "3.5";
    object      p;
}
// * * * * * * * * * * * * * * * * * * * * * * * * * * * * * * * * * * * * * //

dimensions      [0 2 -2 0 0 0 0];

internalField   nonuniform List<scalar> 
1600
(
1.75502e-08
-1.25544e-05
-6.7006e-05
-0.000152947
-0.000244414
-0.000332627
-0.00041976
-0.000515925
-0.000631265
-0.000767773
-0.000931635
-0.00115311
-0.00146841
-0.0017027
-0.00184157
-0.00206827
-0.00245355
-0.00293879
-0.00343726
-0.00386202
-0.00414279
-0.00422499
-0.00406912
-0.00363934
-0.00292522
-0.00193938
-0.000692243
0.00078773
0.00242611
0.00408384
0.00555783
0.00662323
0.00710796
0.00697059
0.00625615
0.00550403
0.00500474
0.00488633
0.00493661
0.00496177
-5.70931e-06
-3.08585e-05
-8.99116e-05
-0.000174601
-0.000252812
-0.000320809
-0.000386474
-0.000466913
-0.00056836
-0.000682483
-0.000798801
-0.000965245
-0.00124337
-0.00159822
-0.00196933
-0.0023746
-0.00284442
-0.00335727
-0.0038553
-0.00427075
-0.00454416
-0.00462807
-0.00448867
-0.00410046
-0.00345901
-0.0025446
-0.00135985
5.52135e-05
0.00162941
0.00324225
0.00471962
0.00584539
0.00643575
0.00640735
0.00584142
0.00510652
0.00471241
0.00472112
0.00482745
0.00488248
2.26804e-06
-4.59363e-05
-0.000119927
-0.000206286
-0.000273201
-0.000312439
-0.000341719
-0.000379448
-0.000448775
-0.000589221
-0.000821101
-0.00112948
-0.00151819
-0.00198351
-0.00250872
-0.00306762
-0.00363374
-0.0041799
-0.00466811
-0.00505853
-0.00531011
-0.00538999
-0.00526874
-0.00492613
-0.004347
-0.00351651
-0.0024399
-0.00114516
0.000316247
0.0018544
0.00333324
0.00457079
0.00537517
0.00561702
0.00534858
0.00485787
0.00458236
0.00460568
0.00471706
0.00475817
4.37997e-05
-3.00579e-05
-0.000127406
-0.000208976
-0.000256658
-0.000280624
-0.000305437
-0.00036169
-0.00048525
-0.00072316
-0.00110524
-0.00160792
-0.00218143
-0.0027974
-0.00343771
-0.00407697
-0.00468588
-0.00523832
-0.00571277
-0.00608278
-0.00632012
-0.00639855
-0.00629263
-0.00598904
-0.00547189
-0.00473656
-0.00378727
-0.00264031
-0.00132636
9.7878e-05
0.00153902
0.00286207
0.00389606
0.00451278
0.00470366
0.00463124
0.00459143
0.0045955
0.00465295
0.00465297
0.000166567
5.6905e-05
-5.84865e-05
-0.000141351
-0.000192821
-0.000235646
-0.000308374
-0.000457131
-0.000727793
-0.00115044
-0.0017207
-0.00239358
-0.00311442
-0.00384443
-0.00455637
-0.00523032
-0.00585161
-0.00640871
-0.0068821
-0.0072396
-0.00746203
-0.00753271
-0.0074421
-0.00718015
-0.00673203
-0.00609699
-0.00527463
-0.00427231
-0.00311011
-0.00182648
-0.000478822
0.000853385
0.00206535
0.00305634
0.00376921
0.00423093
0.00452546
0.00466118
0.00462877
0.00457203
0.000392246
0.000237544
0.000105715
2.83966e-06
-8.70396e-05
-0.000203313
-0.000397044
-0.000718856
-0.00119805
-0.00182789
-0.0025696
-0.00337229
-0.00419115
-0.00498984
-0.00574481
-0.00644365
-0.00707274
-0.00761606
-0.00805446
-0.00837737
-0.00857737
-0.00864365
-0.00857075
-0.00835165
-0.00797662
-0.00744352
-0.00675037
-0.00589794
-0.00489267
-0.0037509
-0.00250327
-0.00119953
0.000100813
0.00135285
0.00250428
0.00348113
0.00419508
0.00460031
0.00456654
0.00446798
0.000694405
0.000505775
0.000337246
0.000188801
1.75261e-05
-0.000232366
-0.000612561
-0.00115385
-0.00185023
-0.00266422
-0.00354276
-0.00443983
-0.00531932
-0.00615243
-0.00692109
-0.00761321
-0.00821835
-0.00872734
-0.00913099
-0.00942507
-0.00960556
-0.00966761
-0.00960819
-0.00942335
-0.00910899
-0.0086628
-0.00808252
-0.00736611
-0.00651223
-0.00552222
-0.0044034
-0.00317122
-0.00184545
-0.000449382
0.000983506
0.00236895
0.00352337
0.00426856
0.00448889
0.0043061
0.00102275
0.000797547
0.000571105
0.000347405
5.37973e-05
-0.000375293
-0.000972981
-0.00173411
-0.00262104
-0.00357847
-0.00455449
-0.00551109
-0.00641863
-0.00725659
-0.00801272
-0.00867884
-0.00924972
-0.00972189
-0.0100925
-0.01036
-0.0105229
-0.0105797
-0.0105297
-0.0103714
-0.0101038
-0.00972586
-0.00923576
-0.0086303
-0.00790446
-0.00705167
-0.00606503
-0.00493842
-0.00366379
-0.0022311
-0.000649694
0.00100105
0.00252509
0.00368186
0.00430083
0.00404529
0.00129197
0.00101627
0.000721592
0.000402888
-4.01797e-05
-0.000664745
-0.00147123
-0.00242167
-0.00345596
-0.00451268
-0.00554878
-0.00653314
-0.00744348
-0.00826666
-0.00899594
-0.00962815
-0.0101626
-0.0105995
-0.0109392
-0.0111824
-0.0113291
-0.0113801
-0.0113363
-0.0111978
-0.0109656
-0.0106401
-0.0102204
-0.0097032
-0.00908218
-0.00834672
-0.0074818
-0.00646809
-0.00528163
-0.00389188
-0.0022771
-0.000481583
0.00130935
0.00284396
0.00379489
0.00370736
0.00139872
0.00108375
0.000719116
0.000295584
-0.000300393
-0.00110492
-0.00208553
-0.00318002
-0.00431289
-0.00542879
-0.00649242
-0.00747941
-0.00837465
-0.00917132
-0.00986762
-0.0104646
-0.0109644
-0.0113696
-0.0116822
-0.0119043
-0.0120373
-0.012083
-0.0120431
-0.0119191
-0.0117131
-0.0114265
-0.0110594
-0.0106097
-0.0100715
-0.00943337
-0.00867695
-0.00777644
-0.00669863
-0.00540148
-0.00383639
-0.00199886
-5.37675e-05
0.00172681
0.00303505
0.00367057
0.00130479
0.000956551
0.000526398
1.36238e-06
-0.00073011
-0.00167981
-0.00278863
-0.00397317
-0.00516131
-0.00630223
-0.00736762
-0.00833916
-0.00920815
-0.00997295
-0.0106354
-0.0111992
-0.0116683
-0.0120466
-0.0123373
-0.0125429
-0.0126656
-0.0127074
-0.0126704
-0.0125574
-0.0123703
-0.0121116
-0.0117827
-0.0113828
-0.0109076
-0.0103467
-0.00968206
-0.00888622
-0.00792268
-0.00674564
-0.00529429
-0.00352056
-0.0015222
0.000373948
0.00200271
0.003143
0.000997911
0.000625141
0.000140188
-0.000468793
-0.00130719
-0.002356
-0.00354287
-0.00477216
-0.00597899
-0.00711789
-0.00816639
-0.00911109
-0.0099484
-0.0106802
-0.0113108
-0.0118454
-0.0122892
-0.0126466
-0.0129209
-0.0131149
-0.0132309
-0.0132708
-0.0132368
-0.0131317
-0.0129581
-0.0127191
-0.0124172
-0.0120531
-0.0116245
-0.0111234
-0.0105342
-0.00983077
-0.00897701
-0.00792739
-0.00662291
-0.00499032
-0.00303237
-0.0011218
0.000589385
0.00186062
0.000496903
0.000112779
-0.000410439
-0.00108029
-0.00198832
-0.00309523
-0.00431161
-0.00555156
-0.0067493
-0.00786714
-0.00888669
-0.00979858
-0.0106027
-0.0113032
-0.0119058
-0.0124166
-0.0128409
-0.0131831
-0.0134465
-0.0136334
-0.0137458
-0.0137856
-0.0137547
-0.0136558
-0.0134919
-0.0132665
-0.0129831
-0.0126439
-0.0122487
-0.0117927
-0.0112636
-0.0106391
-0.00988575
-0.00896002
-0.00780815
-0.00635479
-0.00455604
-0.0026881
-0.00107505
0.000110718
-0.000152439
-0.000534371
-0.00107726
-0.00178532
-0.00272605
-0.00385385
-0.00506545
-0.00628981
-0.00746005
-0.00854503
-0.00952922
-0.0104064
-0.0111787
-0.0118515
-0.012431
-0.0129234
-0.0133339
-0.0136663
-0.0139233
-0.0141069
-0.0142184
-0.0142596
-0.014232
-0.0141381
-0.0139811
-0.0137648
-0.0134935
-0.013171
-0.0127991
-0.0123761
-0.0118937
-0.0113345
-0.0106694
-0.00985826
-0.00885263
-0.00758851
-0.00601434
-0.00425805
-0.00282877
-0.00181821
-0.000889497
-0.00125901
-0.00180503
-0.00253017
-0.00347636
-0.00459279
-0.00577918
-0.00697063
-0.00810253
-0.00914869
-0.0100956
-0.0109392
-0.011683
-0.0123325
-0.0128941
-0.0133733
-0.0137749
-0.0141018
-0.0143563
-0.0145396
-0.0146526
-0.0146963
-0.0146722
-0.0145825
-0.0144303
-0.0142197
-0.0139559
-0.0136437
-0.0132871
-0.0128872
-0.01244
-0.011933
-0.0113426
-0.0106338
-0.009765
-0.00868593
-0.00733875
-0.00576432
-0.0045295
-0.00370389
-0.00165579
-0.00200466
-0.00254152
-0.00326564
-0.0041964
-0.00528087
-0.00643266
-0.00758141
-0.0086703
-0.00967624
-0.0105871
-0.0114005
-0.01212
-0.0127511
-0.0132995
-0.0137702
-0.014167
-0.0144922
-0.0147472
-0.0149326
-0.0150488
-0.0150962
-0.0150758
-0.0149895
-0.0148405
-0.0146331
-0.014373
-0.0140662
-0.0137186
-0.0133339
-0.012912
-0.0124453
-0.0119159
-0.0112944
-0.0105441
-0.00962554
-0.00848786
-0.00715628
-0.00610173
-0.00541677
-0.00239673
-0.00272168
-0.00324057
-0.00395003
-0.00485435
-0.00589792
-0.0070087
-0.00811204
-0.00915822
-0.0101261
-0.0110046
-0.0117922
-0.0124922
-0.0131095
-0.0136491
-0.0141152
-0.0145107
-0.0148371
-0.0150951
-0.0152846
-0.0154053
-0.015457
-0.0154404
-0.0153571
-0.01521
-0.0150038
-0.0147444
-0.014439
-0.0140951
-0.013719
-0.0133137
-0.0128765
-0.0123951
-0.0118457
-0.0111953
-0.0104102
-0.00945149
-0.00835333
-0.00747203
-0.00690096
-0.00307039
-0.00336919
-0.00386517
-0.00455249
-0.00542655
-0.00642795
-0.00749571
-0.00855527
-0.00956222
-0.0104964
-0.0113476
-0.0121144
-0.0127997
-0.0134075
-0.0139423
-0.0144072
-0.0148042
-0.0151342
-0.015397
-0.015592
-0.0157181
-0.0157748
-0.015762
-0.0156811
-0.0155349
-0.0153281
-0.015067
-0.0147598
-0.0144152
-0.0140417
-0.0136455
-0.0132279
-0.0127816
-0.0122886
-0.0117204
-0.0110448
-0.0102364
-0.00934221
-0.00861151
-0.00813043
-0.00364345
-0.00391896
-0.004389
-0.00505219
-0.00589624
-0.0068587
-0.00788573
-0.00890596
-0.00987892
-0.0107849
-0.0116145
-0.0123657
-0.0130409
-0.0136434
-0.0141767
-0.0146431
-0.015044
-0.0153794
-0.0156485
-0.0158499
-0.0159822
-0.0160441
-0.0160351
-0.0159561
-0.0158098
-0.0156008
-0.015336
-0.0150241
-0.0146751
-0.0142993
-0.0139055
-0.0134986
-0.013076
-0.0126248
-0.0121205
-0.0115338
-0.0108488
-0.0101116
-0.0095104
-0.00910448
-0.00410325
-0.00434829
-0.00479572
-0.00543675
-0.00625253
-0.0071814
-0.00817311
-0.00916003
-0.0101051
-0.0109891
-0.0118027
-0.0125435
-0.013213
-0.0138138
-0.0143487
-0.0148192
-0.0152258
-0.015568
-0.0158444
-0.0160529
-0.0161916
-0.0162586
-0.016253
-0.0161753
-0.0160279
-0.0158155
-0.015545
-0.0152259
-0.0148693
-0.0144868
-0.0140896
-0.0136855
-0.0132763
-0.0128539
-0.0123975
-0.0118799
-0.0112929
-0.0106764
-0.0101767
-0.00983077
-0.00443452
-0.00465387
-0.00508192
-0.00570234
-0.00649069
-0.0073915
-0.00835474
-0.00931432
-0.010238
-0.011106
-0.0119091
-0.0126443
-0.0133123
-0.0139149
-0.014454
-0.0149306
-0.0153446
-0.0156947
-0.015979
-0.0161949
-0.0163399
-0.0164117
-0.016409
-0.0163317
-0.0161822
-0.0159648
-0.0156869
-0.0153584
-0.0149912
-0.0145984
-0.0141926
-0.0137845
-0.0133794
-0.0129736
-0.0125509
-0.0120855
-0.011573
-0.0110473
-0.0106237
-0.0103244
-0.00462722
-0.00483249
-0.00524685
-0.00585069
-0.0066127
-0.00748933
-0.00842743
-0.00936576
-0.0102738
-0.0111321
-0.0119302
-0.0126644
-0.0133346
-0.0139422
-0.0144881
-0.0149728
-0.0153954
-0.0157543
-0.0160469
-0.0162703
-0.0164213
-0.0164973
-0.0164965
-0.0164186
-0.0162656
-0.0160417
-0.0157546
-0.0154146
-0.0150342
-0.0146276
-0.014209
-0.0137909
-0.0133815
-0.0129814
-0.0125795
-0.0121532
-0.0116975
-0.0112381
-0.0108671
-0.0106008
-0.00469805
-0.00489143
-0.00529378
-0.00588381
-0.00662291
-0.00747566
-0.00839322
-0.00931524
-0.0102124
-0.0110652
-0.0118625
-0.0125996
-0.0132758
-0.0138912
-0.0144464
-0.0149409
-0.0153736
-0.015742
-0.0160434
-0.0162741
-0.0164306
-0.01651
-0.01651
-0.0164302
-0.0162721
-0.0160401
-0.0157419
-0.0153882
-0.0149922
-0.014569
-0.0141337
-0.0137004
-0.0132796
-0.0128756
-0.0124829
-0.0120833
-0.0116687
-0.0112539
-0.0109253
-0.0106759
-0.0046675
-0.0048472
-0.00523569
-0.00581218
-0.0065296
-0.0073551
-0.00825355
-0.00916246
-0.0100518
-0.0109025
-0.0117025
-0.0124462
-0.0131315
-0.0137579
-0.0143247
-0.0148311
-0.0152752
-0.0156542
-0.0159646
-0.0162026
-0.0163642
-0.016446
-0.0164457
-0.0163624
-0.0161976
-0.0159556
-0.0156442
-0.0152746
-0.0148605
-0.0144177
-0.0139625
-0.0135097
-0.0130716
-0.0126556
-0.0122616
-0.0118773
-0.0114904
-0.0111012
-0.0108153
-0.0105627
-0.00455687
-0.00472105
-0.00509062
-0.00564758
-0.00634305
-0.00713962
-0.0080117
-0.00890757
-0.0097907
-0.0106414
-0.0114471
-0.0122005
-0.0128981
-0.0135383
-0.0141195
-0.01464
-0.0150972
-0.0154879
-0.0158081
-0.0160535
-0.0162199
-0.0163034
-0.0163016
-0.0162134
-0.0160401
-0.0157861
-0.0154594
-0.0150715
-0.0146367
-0.0141715
-0.0136929
-0.0132171
-0.0127567
-0.0123218
-0.0119174
-0.0115367
-0.0111676
-0.0107932
-0.0105569
-0.0102699
-0.00439278
-0.00453819
-0.00488017
-0.00540644
-0.00607101
-0.00683644
-0.00767635
-0.0085539
-0.00942915
-0.0102804
-0.0110935
-0.0118592
-0.0125723
-0.0132294
-0.0138279
-0.0143651
-0.0148376
-0.0152416
-0.0155727
-0.0158262
-0.0159974
-0.0160823
-0.0160781
-0.0159837
-0.0158004
-0.0155325
-0.0151884
-0.0147797
-0.0143215
-0.013831
-0.0133259
-0.0128231
-0.0123361
-0.0118762
-0.0114532
-0.0110652
-0.0107046
-0.0103313
-0.0101712
-0.00980241
-0.00420562
-0.00432575
-0.00462671
-0.00510682
-0.00572608
-0.00645066
-0.0072534
-0.00810494
-0.00896804
-0.00981866
-0.0106399
-0.0114201
-0.0121515
-0.012829
-0.0134481
-0.0140051
-0.0144957
-0.0149153
-0.015259
-0.0155217
-0.0156984
-0.0157847
-0.0157777
-0.0156763
-0.0154816
-0.0151983
-0.0148348
-0.0144032
-0.0139192
-0.0134003
-0.0128653
-0.0123317
-0.0118138
-0.0113239
-0.0108753
-0.0104724
-0.0101101
-0.00972217
-0.00960718
-0.00917783
-0.00402361
-0.00410791
-0.00434984
-0.00476532
-0.00532271
-0.00599143
-0.0067475
-0.00756451
-0.00840935
-0.00925639
-0.0100856
-0.010882
-0.0116347
-0.012336
-0.0129796
-0.01356
-0.0140721
-0.0145102
-0.014869
-0.0151428
-0.0153262
-0.0154148
-0.0154053
-0.0152966
-0.0150899
-0.0147901
-0.0144057
-0.0139494
-0.0134372
-0.0128874
-0.0123192
-0.0117509
-0.0111975
-0.0106725
-0.0101918
-0.00976788
-0.00940061
-0.00896831
-0.00887456
-0.00839306
-0.00386395
-0.00389977
-0.00406345
-0.00439584
-0.00487374
-0.00546967
-0.00616473
-0.0069369
-0.00775626
-0.00859563
-0.00943177
-0.0102456
-0.0110225
-0.0117514
-0.0124236
-0.0130318
-0.0135693
-0.0140297
-0.0144066
-0.0146941
-0.0148864
-0.0149787
-0.0149678
-0.0148526
-0.0146342
-0.0143175
-0.0139116
-0.0134295
-0.0128875
-0.0123043
-0.0116996
-0.0110925
-0.010499
-0.0099335
-0.00941428
-0.00896231
-0.00857957
-0.00805963
-0.00800782
-0.00740532
-0.00372522
-0.00369878
-0.0037748
-0.00400983
-0.00439016
-0.0048952
-0.0055133
-0.0062286
-0.00701398
-0.00784069
-0.00868182
-0.00951391
-0.0103178
-0.0110783
-0.0117838
-0.0124245
-0.0129921
-0.0134791
-0.0138781
-0.0141827
-0.0143868
-0.0144855
-0.0144753
-0.0143551
-0.0141263
-0.0137938
-0.0133671
-0.0128591
-0.0122866
-0.0116683
-0.0110242
-0.0103738
-0.00973499
-0.00912271
-0.00855725
-0.0080645
-0.0076395
-0.007026
-0.00698958
-0.00617057
-0.00357929
-0.00349112
-0.00348842
-0.00361603
-0.00388011
-0.00427586
-0.00480175
-0.00544804
-0.00619067
-0.00699933
-0.00784315
-0.00869379
-0.00952707
-0.0103233
-0.011067
-0.0117455
-0.0123484
-0.0128667
-0.0132924
-0.0136183
-0.0138381
-0.0139466
-0.0139404
-0.0138184
-0.0135818
-0.0132361
-0.0127907
-0.0122585
-0.011656
-0.0110019
-0.0103161
-0.0096182
-0.00892769
-0.00826032
-0.00763878
-0.00708878
-0.0065936
-0.00584164
-0.00584909
-0.00461663
-0.0033957
-0.00327823
-0.00321023
-0.00322065
-0.00335105
-0.00362035
-0.0040402
-0.00460698
-0.00529919
-0.00608486
-0.00692915
-0.00779843
-0.00866309
-0.0094985
-0.0102848
-0.0110062
-0.0116497
-0.0122047
-0.0126621
-0.0130142
-0.0132542
-0.013377
-0.0133794
-0.0132606
-0.0130203
-0.0126658
-0.0122058
-0.0116529
-0.011023
-0.0103339
-0.00960491
-0.00885538
-0.00810582
-0.00737275
-0.00668015
-0.00604867
-0.00544409
-0.00449991
-0.00458872
-0.00268529
-0.0031831
-0.00307541
-0.00294319
-0.00282695
-0.002809
-0.00293784
-0.00324055
-0.00372018
-0.00435713
-0.00511728
-0.00596091
-0.0068491
-0.00774672
-0.00862396
-0.0094565
-0.0102249
-0.0109137
-0.0115104
-0.0120046
-0.0123879
-0.0126535
-0.0127961
-0.0128123
-0.0127009
-0.0124655
-0.0121092
-0.0116413
-0.0110736
-0.010421
-0.00969959
-0.00892756
-0.00812274
-0.00730578
-0.00649277
-0.00570749
-0.00495759
-0.00419662
-0.00304313
-0.00308658
-0.000375851
-0.00297515
-0.00288567
-0.00268439
-0.00243634
-0.00226116
-0.00224033
-0.0024194
-0.00280882
-0.00338919
-0.00412355
-0.00496723
-0.00587539
-0.00680738
-0.00772835
-0.00860956
-0.00942804
-0.0101656
-0.0108078
-0.0113432
-0.0117627
-0.0120593
-0.012228
-0.0122654
-0.0121708
-0.0119469
-0.0115972
-0.0111303
-0.0105563
-0.00988789
-0.00913886
-0.00832484
-0.00746058
-0.0065647
-0.00564951
-0.00473667
-0.00381338
-0.00283144
-0.0014339
-0.00111095
0.00232343
-0.00276914
-0.00269357
-0.00242365
-0.00204232
-0.00170862
-0.00153845
-0.0015964
-0.00189917
-0.00242734
-0.00313954
-0.00398559
-0.00491518
-0.00588247
-0.00684769
-0.00777812
-0.00864757
-0.00943543
-0.0101257
-0.0107058
-0.0111661
-0.0114993
-0.0117005
-0.0117666
-0.0116969
-0.0114936
-0.0111611
-0.0107049
-0.0101335
-0.00945712
-0.00868531
-0.00782962
-0.00689835
-0.00590481
-0.00484976
-0.00374579
-0.00254922
-0.00122032
0.000594808
0.00154695
0.0058302
-0.00256796
-0.00248858
-0.00215774
-0.00164414
-0.00116164
-0.000856075
-0.000805941
-0.0010326
-0.00151548
-0.00220944
-0.00305908
-0.00400919
-0.00500974
-0.0060171
-0.00699499
-0.00791443
-0.00875267
-0.00949226
-0.0101197
-0.0106245
-0.0109993
-0.0112387
-0.0113404
-0.0113034
-0.0111292
-0.0108205
-0.0103819
-0.0098188
-0.00913932
-0.00834662
-0.0074471
-0.00643582
-0.00531525
-0.00405953
-0.00265901
-0.00101195
0.000917712
0.00353029
0.00564019
0.0115484
-0.00239822
-0.00228989
-0.00186954
-0.00123781
-0.000617305
-0.000200361
-6.23569e-05
-0.000226787
-0.000672223
-0.00135077
-0.00220398
-0.00317313
-0.0042049
-0.00525282
-0.00627759
-0.00724747
-0.00813747
-0.00892846
-0.00960578
-0.0101583
-0.010578
-0.0108595
-0.011
-0.0109984
-0.0108554
-0.0105725
-0.0101538
-0.00960052
-0.00891608
-0.00809736
-0.00714781
-0.00603809
-0.00475276
-0.00321362
-0.0013697
0.00100292
0.00397382
0.00815564
0.0127171
0.0223163
-0.00244295
-0.00223384
-0.00164473
-0.000873902
-0.000143134
0.000363232
0.000563866
0.000440563
1.72495e-05
-0.000655459
-0.00151661
-0.00250508
-0.00356525
-0.0046487
-0.00571408
-0.00672773
-0.00766265
-0.00849819
-0.00921842
-0.00981169
-0.0102696
-0.0105866
-0.0107593
-0.0107859
-0.0106671
-0.0104032
-0.00999704
-0.00944754
-0.0087565
-0.00791013
-0.00689474
-0.0056699
-0.00419322
-0.00230095
0.000125334
0.00353901
0.00813526
0.0152177
0.0246208
0.0411533
-0.00331192
-0.0024635
-0.00152528
-0.000552994
0.00030344
0.000880185
0.00112624
0.00102672
0.000610451
-6.81948e-05
-0.000945039
-0.00195701
-0.00304654
-0.00416376
-0.00526525
-0.00631601
-0.00728741
-0.00815805
-0.00891068
-0.0095337
-0.0100182
-0.0103589
-0.0105519
-0.0105959
-0.0104904
-0.010236
-0.00983336
-0.00928063
-0.0085742
-0.00770149
-0.00663953
-0.00534189
-0.00368278
-0.00150953
0.00151013
0.00610942
0.0129798
0.0246918
0.0418301
0.0682809
-0.00528297
-0.0014998
-0.000137471
0.000734099
0.00148401
0.00200612
0.00219271
0.00202223
0.00153222
0.000783699
-0.000158101
-0.00123008
-0.00237549
-0.00354417
-0.00469358
-0.00578747
-0.00679789
-0.0077024
-0.00848505
-0.00913306
-0.00963894
-0.00999666
-0.010204
-0.0102589
-0.010162
-0.009913
-0.0095125
-0.00895633
-0.00823722
-0.00733808
-0.0062199
-0.00485631
-0.00309375
-0.000949189
0.0026282
0.00799453
0.0180208
0.0350509
0.0615885
0.0958947
)
;

boundaryField
{
    movingWall
    {
        type            zeroGradient;
    }
    fixedWalls
    {
        type            zeroGradient;
    }
    frontAndBack
    {
        type            empty;
    }
}


// ************************************************************************* //
