/*--------------------------------*- C++ -*----------------------------------*\
  =========                 |
  \\      /  F ield         | OpenFOAM: The Open Source CFD Toolbox
   \\    /   O peration     | Website:  https://openfoam.org
    \\  /    A nd           | Version:  12
     \\/     M anipulation  |
\*---------------------------------------------------------------------------*/
FoamFile
{
    format      ascii;
    class       surfaceScalarField;
    location    "3.5";
    object      phi;
}
// * * * * * * * * * * * * * * * * * * * * * * * * * * * * * * * * * * * * * //

dimensions      [0 3 -1 0 0 0 0];

internalField   nonuniform List<scalar> 
3120
(
6.17148e-08
-6.17165e-08
1.56775e-07
-9.50606e-08
2.35603e-07
-7.88281e-08
2.76605e-07
-4.1002e-08
2.87013e-07
-1.04074e-08
2.82116e-07
4.8966e-09
2.7335e-07
8.7662e-09
2.6222e-07
1.11297e-08
2.39099e-07
2.31208e-08
1.95761e-07
4.33375e-08
1.2242e-07
7.33411e-08
-1.24364e-08
1.34857e-07
-2.25691e-07
2.13254e-07
-5.41978e-07
3.16288e-07
-9.51898e-07
4.0992e-07
-1.39523e-06
4.43335e-07
-1.8189e-06
4.23664e-07
-2.1991e-06
3.80206e-07
-2.52534e-06
3.26234e-07
-2.79569e-06
2.70347e-07
-3.00943e-06
2.13747e-07
-3.16672e-06
1.57286e-07
-3.26602e-06
9.93042e-08
-3.30672e-06
4.06951e-08
-3.28345e-06
-2.32729e-08
-3.19354e-06
-8.99083e-08
-3.03331e-06
-1.60231e-07
-2.79386e-06
-2.39444e-07
-2.47393e-06
-3.19927e-07
-2.06922e-06
-4.04715e-07
-1.58271e-06
-4.86506e-07
-1.03392e-06
-5.48796e-07
-4.64814e-07
-5.69104e-07
6.09003e-08
-5.25714e-07
4.7389e-07
-4.1299e-07
6.42832e-07
-1.68942e-07
5.48938e-07
9.38935e-08
3.52204e-07
1.96734e-07
1.44956e-07
2.07248e-07
1.44956e-07
1.09135e-07
-1.70851e-07
2.36952e-07
-2.22878e-07
3.21457e-07
-1.63333e-07
3.52959e-07
-7.25038e-08
3.42284e-07
2.67651e-10
2.93898e-07
5.32827e-08
2.16621e-07
8.60428e-08
9.87752e-08
1.28976e-07
-8.5276e-08
2.07172e-07
-3.69471e-07
3.27533e-07
-7.7558e-07
4.7945e-07
-1.282e-06
6.41272e-07
-1.83579e-06
7.67053e-07
-2.35865e-06
8.39144e-07
-2.79318e-06
8.4445e-07
-3.15268e-06
8.02838e-07
-3.46135e-06
7.32327e-07
-3.72212e-06
6.40979e-07
-3.93623e-06
5.40349e-07
-4.10324e-06
4.37356e-07
-4.22379e-06
3.34289e-07
-4.29761e-06
2.31115e-07
-4.3264e-06
1.28095e-07
-4.30411e-06
1.83969e-08
-4.23527e-06
-9.21062e-08
-4.11219e-06
-2.1299e-07
-3.92854e-06
-3.43886e-07
-3.67995e-06
-4.88031e-07
-3.35588e-06
-6.43993e-07
-2.95489e-06
-8.05712e-07
-2.47739e-06
-9.64005e-07
-1.92905e-06
-1.09714e-06
-1.33167e-06
-1.16649e-06
-7.20456e-07
-1.13692e-06
-1.84337e-07
-9.49109e-07
2.10846e-07
-5.64125e-07
3.38988e-07
-3.42479e-08
2.77312e-07
2.58409e-07
1.27708e-07
3.56852e-07
2.72665e-07
1.27159e-07
-2.9801e-07
2.20712e-07
-3.16431e-07
2.53628e-07
-1.96249e-07
2.32204e-07
-5.108e-08
1.58718e-07
7.37536e-08
3.11691e-08
1.80832e-07
-1.7712e-07
2.94332e-07
-4.90038e-07
4.41893e-07
-9.14861e-07
6.31996e-07
-1.42875e-06
8.4142e-07
-1.97376e-06
1.02446e-06
-2.47855e-06
1.14606e-06
-2.91666e-06
1.20516e-06
-3.27885e-06
1.20134e-06
-3.57596e-06
1.14155e-06
-3.81955e-06
1.04643e-06
-4.01804e-06
9.30812e-07
-4.17973e-06
8.02672e-07
-4.30825e-06
6.68862e-07
-4.40665e-06
5.35759e-07
-4.47525e-06
4.02894e-07
-4.51454e-06
2.70401e-07
-4.52123e-06
1.34781e-07
-4.49367e-06
-9.15575e-09
-4.43265e-06
-1.53128e-07
-4.33528e-06
-3.10358e-07
-4.19677e-06
-4.82401e-07
-4.01299e-06
-6.71815e-07
-3.77632e-06
-8.80659e-07
-3.47575e-06
-1.10629e-06
-3.10248e-06
-1.33727e-06
-2.64993e-06
-1.54969e-06
-2.12119e-06
-1.69522e-06
-1.53968e-06
-1.71843e-06
-9.3368e-07
-1.55511e-06
-3.8253e-07
-1.11527e-06
-3.11612e-08
-3.85617e-07
5.60163e-08
1.71232e-07
3.54682e-08
3.774e-07
3.08133e-07
1.00275e-07
-3.98284e-07
1.28258e-07
-3.44415e-07
8.60631e-08
-1.54054e-07
-1.42071e-08
4.91901e-08
-1.81339e-07
2.40886e-07
-4.34391e-07
4.33883e-07
-7.88862e-07
6.48803e-07
-1.23894e-06
8.91966e-07
-1.74855e-06
1.14161e-06
-2.26159e-06
1.35446e-06
-2.72188e-06
1.48475e-06
-3.10456e-06
1.52875e-06
-3.40923e-06
1.50983e-06
-3.64819e-06
1.44029e-06
-3.83961e-06
1.33297e-06
-3.99425e-06
1.20108e-06
-4.11887e-06
1.05542e-06
-4.22188e-06
9.05691e-07
-4.3076e-06
7.54574e-07
-4.37399e-06
6.02153e-07
-4.41884e-06
4.47742e-07
-4.44214e-06
2.93697e-07
-4.44274e-06
1.35387e-07
-4.42206e-06
-2.98375e-08
-4.37724e-06
-1.97952e-07
-4.30657e-06
-3.81026e-07
-4.20716e-06
-5.81803e-07
-4.07593e-06
-8.03049e-07
-3.91012e-06
-1.04647e-06
-3.70581e-06
-1.31059e-06
-3.4562e-06
-1.58688e-06
-3.14457e-06
-1.86133e-06
-2.73859e-06
-2.1012e-06
-2.2312e-06
-2.22582e-06
-1.6332e-06
-2.15311e-06
-9.70848e-07
-1.77763e-06
-3.63817e-07
-9.92648e-07
-9.40376e-08
-9.85474e-08
-1.35488e-08
2.96911e-07
2.94584e-07
3.91167e-08
-4.37401e-07
-1.80909e-08
-2.87208e-07
-1.43477e-07
-2.86677e-08
-3.30723e-07
2.36435e-07
-5.96139e-07
5.06302e-07
-9.5092e-07
7.88664e-07
-1.38681e-06
1.0847e-06
-1.87001e-06
1.37517e-06
-2.34702e-06
1.61862e-06
-2.7608e-06
1.76824e-06
-3.09268e-06
1.81663e-06
-3.35543e-06
1.7915e-06
-3.55951e-06
1.71391e-06
-3.71737e-06
1.59815e-06
-3.84228e-06
1.45788e-06
-3.94423e-06
1.30303e-06
-4.02763e-06
1.13882e-06
-4.09114e-06
9.69198e-07
-4.13542e-06
7.9886e-07
-4.16244e-06
6.29177e-07
-4.17637e-06
4.61665e-07
-4.17754e-06
2.94873e-07
-4.16763e-06
1.25471e-07
-4.1479e-06
-4.95601e-08
-4.11415e-06
-2.3171e-07
-4.06658e-06
-4.28593e-07
-4.00418e-06
-6.442e-07
-3.92451e-06
-8.82725e-07
-3.82375e-06
-1.14723e-06
-3.69646e-06
-1.43788e-06
-3.53474e-06
-1.7486e-06
-3.33059e-06
-2.06547e-06
-3.06795e-06
-2.36384e-06
-2.70168e-06
-2.59209e-06
-2.19796e-06
-2.65684e-06
-1.54595e-06
-2.42963e-06
-7.59648e-07
-1.77895e-06
-1.77816e-07
-6.8038e-07
-9.32888e-09
1.28424e-07
2.85255e-07
-4.9663e-08
-3.87738e-07
-1.92556e-07
-1.44315e-07
-3.94231e-07
1.73008e-07
-6.60634e-07
5.02838e-07
-1.00138e-06
8.47052e-07
-1.40952e-06
1.1968e-06
-1.8572e-06
1.53238e-06
-2.29833e-06
1.81629e-06
-2.67963e-06
1.99992e-06
-2.97789e-06
2.0665e-06
-3.20756e-06
2.0463e-06
-3.3843e-06
1.96824e-06
-3.51804e-06
1.84765e-06
-3.61852e-06
1.69863e-06
-3.69228e-06
1.53164e-06
-3.74352e-06
1.35428e-06
-3.77659e-06
1.17189e-06
-3.79612e-06
9.88726e-07
-3.80584e-06
8.08582e-07
-3.80799e-06
6.31325e-07
-3.80296e-06
4.56635e-07
-3.79107e-06
2.82985e-07
-3.77325e-06
1.07656e-07
-3.75048e-06
-7.23339e-08
-3.72159e-06
-2.60604e-07
-3.68776e-06
-4.62424e-07
-3.6493e-06
-6.82652e-07
-3.60567e-06
-9.26357e-07
-3.55508e-06
-1.19782e-06
-3.49368e-06
-1.49928e-06
-3.41369e-06
-1.8286e-06
-3.30241e-06
-2.17675e-06
-3.14446e-06
-2.5218e-06
-2.91308e-06
-2.82347e-06
-2.5561e-06
-3.01381e-06
-2.01345e-06
-2.97229e-06
-1.24519e-06
-2.54721e-06
-3.92489e-07
-1.53308e-06
-2.11398e-08
-2.42925e-07
2.64116e-07
-1.38655e-07
-2.49083e-07
-3.59541e-07
7.65711e-08
-6.26543e-07
4.40009e-07
-9.51263e-07
8.27558e-07
-1.33116e-06
1.22695e-06
-1.74467e-06
1.6103e-06
-2.15509e-06
1.9428e-06
-2.51393e-06
2.17513e-06
-2.79147e-06
2.27746e-06
-2.99834e-06
2.27338e-06
-3.15289e-06
2.20084e-06
-3.26477e-06
2.08012e-06
-3.34244e-06
1.92532e-06
-3.39339e-06
1.74958e-06
-3.42358e-06
1.56183e-06
-3.438e-06
1.3687e-06
-3.44116e-06
1.17504e-06
-3.43663e-06
9.84196e-07
-3.42598e-06
7.97938e-07
-3.41055e-06
6.15895e-07
-3.39121e-06
4.3729e-07
-3.36861e-06
2.60389e-07
-3.34364e-06
8.26797e-08
-3.31716e-06
-9.88126e-08
-3.28986e-06
-2.87901e-07
-3.26305e-06
-4.89231e-07
-3.23786e-06
-7.07849e-07
-3.21497e-06
-9.49239e-07
-3.19417e-06
-1.21863e-06
-3.17336e-06
-1.52008e-06
-3.14719e-06
-1.85477e-06
-3.10582e-06
-2.21811e-06
-3.0324e-06
-2.59522e-06
-2.90083e-06
-2.95504e-06
-2.67323e-06
-3.24141e-06
-2.28442e-06
-3.3611e-06
-1.6676e-06
-3.16403e-06
-7.58283e-07
-2.4424e-06
-8.53343e-08
-9.15874e-07
1.78781e-07
-2.14889e-07
-3.41939e-08
-4.94104e-07
3.55786e-07
-8.10757e-07
7.56662e-07
-1.16769e-06
1.18449e-06
-1.55239e-06
1.61164e-06
-1.93835e-06
1.99627e-06
-2.28407e-06
2.28852e-06
-2.55441e-06
2.44547e-06
-2.74998e-06
2.47304e-06
-2.89113e-06
2.41452e-06
-2.98983e-06
2.29955e-06
-3.05349e-06
2.14378e-06
-3.09025e-06
1.96208e-06
-3.10683e-06
1.76616e-06
-3.10866e-06
1.56367e-06
-3.10025e-06
1.36028e-06
-3.08507e-06
1.15986e-06
-3.06539e-06
9.64517e-07
-3.04231e-06
7.74863e-07
-3.0167e-06
5.90283e-07
-2.98915e-06
4.09736e-07
-2.96024e-06
2.31476e-07
-2.93079e-06
5.32384e-08
-2.90169e-06
-1.2792e-07
-2.87421e-06
-3.1538e-07
-2.85004e-06
-5.13397e-07
-2.83099e-06
-7.26901e-07
-2.81871e-06
-9.61523e-07
-2.81409e-06
-1.22325e-06
-2.81645e-06
-1.51773e-06
-2.82232e-06
-1.84889e-06
-2.82394e-06
-2.21649e-06
-2.80668e-06
-2.61248e-06
-2.74667e-06
-3.01505e-06
-2.60881e-06
-3.37928e-06
-2.34519e-06
-3.62472e-06
-1.89091e-06
-3.61831e-06
-1.15223e-06
-3.18107e-06
-2.46475e-07
-1.82163e-06
-6.7694e-08
-2.64188e-07
2.29994e-07
-5.87566e-07
6.79164e-07
-9.32415e-07
1.10151e-06
-1.29622e-06
1.5483e-06
-1.66231e-06
1.97773e-06
-2.00082e-06
2.33478e-06
-2.27561e-06
2.56331e-06
-2.4731e-06
2.64296e-06
-2.61055e-06
2.61049e-06
-2.70435e-06
2.50832e-06
-2.76248e-06
2.35768e-06
-2.79268e-06
2.17398e-06
-2.80254e-06
1.97194e-06
-2.79791e-06
1.76153e-06
-2.78356e-06
1.54932e-06
-2.76314e-06
1.33986e-06
-2.73903e-06
1.13576e-06
-2.71258e-06
9.38063e-07
-2.68443e-06
7.46712e-07
-2.655e-06
5.60857e-07
-2.62452e-06
3.7925e-07
-2.59325e-06
2.00214e-07
-2.56184e-06
2.18209e-08
-2.53093e-06
-1.58823e-07
-2.50199e-06
-3.44324e-07
-2.47689e-06
-5.38496e-07
-2.45794e-06
-7.45852e-07
-2.44758e-06
-9.71878e-07
-2.44786e-06
-1.22297e-06
-2.45956e-06
-1.50603e-06
-2.48105e-06
-1.8274e-06
-2.50669e-06
-2.19084e-06
-2.52487e-06
-2.59431e-06
-2.51454e-06
-3.02538e-06
-2.44268e-06
-3.45113e-06
-2.26482e-06
-3.80258e-06
-1.94566e-06
-3.93747e-06
-1.40837e-06
-3.71836e-06
-4.7852e-07
-2.75148e-06
-5.46214e-07
-2.95265e-07
5.25259e-07
-6.38665e-07
1.02256e-06
-9.89374e-07
1.45222e-06
-1.33975e-06
1.89868e-06
-1.67293e-06
2.31091e-06
-1.95911e-06
2.62096e-06
-2.17048e-06
2.77469e-06
-2.31483e-06
2.7873e-06
-2.41181e-06
2.70747e-06
-2.47199e-06
2.5685e-06
-2.50271e-06
2.3884e-06
-2.51197e-06
2.18324e-06
-2.50647e-06
1.96644e-06
-2.49127e-06
1.74632e-06
-2.47025e-06
1.52831e-06
-2.44606e-06
1.31567e-06
-2.42021e-06
1.1099e-06
-2.3934e-06
9.11261e-07
-2.36586e-06
7.19173e-07
-2.33753e-06
5.32525e-07
-2.30819e-06
3.49907e-07
-2.27773e-06
1.69757e-07
-2.24634e-06
-9.57108e-09
-2.21462e-06
-1.90543e-07
-2.1838e-06
-3.75144e-07
-2.15578e-06
-5.66511e-07
-2.13313e-06
-7.68507e-07
-2.11883e-06
-9.86175e-07
-2.11584e-06
-1.22596e-06
-2.12624e-06
-1.49563e-06
-2.15008e-06
-1.80356e-06
-2.18387e-06
-2.15706e-06
-2.21877e-06
-2.55941e-06
-2.23817e-06
-3.00599e-06
-2.21312e-06
-3.47618e-06
-2.10038e-06
-3.91532e-06
-1.86468e-06
-4.17317e-06
-1.45107e-06
-4.13197e-06
-7.20224e-07
-3.48233e-06
-1.26644e-06
-3.04063e-07
8.29322e-07
-6.48896e-07
1.3674e-06
-9.89489e-07
1.79281e-06
-1.31543e-06
2.22462e-06
-1.61009e-06
2.60557e-06
-1.84217e-06
2.85304e-06
-2.00332e-06
2.93584e-06
-2.11183e-06
2.89581e-06
-2.18058e-06
2.77622e-06
-2.2182e-06
2.60613e-06
-2.23233e-06
2.40253e-06
-2.23055e-06
2.18146e-06
-2.21855e-06
1.95444e-06
-2.20054e-06
1.72831e-06
-2.1795e-06
1.50726e-06
-2.15725e-06
1.29343e-06
-2.1347e-06
1.08734e-06
-2.112e-06
8.88567e-07
-2.08888e-06
6.96054e-07
-2.06482e-06
5.08464e-07
-2.03923e-06
3.24316e-07
-2.01166e-06
1.42184e-07
-1.98187e-06
-3.9359e-08
-1.95041e-06
-2.22002e-07
-1.91816e-06
-4.07397e-07
-1.88685e-06
-5.97814e-07
-1.85904e-06
-7.96319e-07
-1.83797e-06
-1.00725e-06
-1.82723e-06
-1.2367e-06
-1.83004e-06
-1.49282e-06
-1.84798e-06
-1.78562e-06
-1.87944e-06
-2.1256e-06
-1.91787e-06
-2.52097e-06
-1.95038e-06
-2.97348e-06
-1.95349e-06
-3.47306e-06
-1.88666e-06
-3.98216e-06
-1.69277e-06
-4.36706e-06
-1.36135e-06
-4.46339e-06
-8.23127e-07
-4.02055e-06
-2.08957e-06
-2.95037e-07
1.12436e-06
-6.26098e-07
1.69846e-06
-9.44818e-07
2.11153e-06
-1.23915e-06
2.51896e-06
-1.49173e-06
2.85814e-06
-1.67592e-06
3.03723e-06
-1.80309e-06
3.06301e-06
-1.88603e-06
2.97874e-06
-1.93553e-06
2.82572e-06
-1.95935e-06
2.62995e-06
-1.9651e-06
2.40828e-06
-1.95941e-06
2.17576e-06
-1.947e-06
1.94203e-06
-1.93129e-06
1.7126e-06
-1.91452e-06
1.49049e-06
-1.89785e-06
1.27675e-06
-1.88156e-06
1.07106e-06
-1.86535e-06
8.7236e-07
-1.84853e-06
6.7923e-07
-1.83023e-06
4.90164e-07
-1.80962e-06
3.03706e-07
-1.78601e-06
1.18571e-07
-1.75901e-06
-6.63575e-08
-1.7288e-06
-2.52208e-07
-1.69607e-06
-4.40126e-07
-1.66226e-06
-6.31627e-07
-1.62965e-06
-8.28932e-07
-1.60139e-06
-1.0355e-06
-1.58136e-06
-1.25672e-06
-1.57358e-06
-1.50061e-06
-1.58107e-06
-1.77813e-06
-1.60415e-06
-2.10252e-06
-1.63846e-06
-2.48667e-06
-1.67353e-06
-2.93841e-06
-1.69089e-06
-3.45571e-06
-1.65869e-06
-4.01436e-06
-1.50493e-06
-4.52082e-06
-1.23579e-06
-4.73253e-06
-7.57317e-07
-4.49902e-06
-2.84688e-06
-2.71913e-07
1.39627e-06
-5.78359e-07
2.0049e-06
-8.6791e-07
2.40108e-06
-1.12732e-06
2.77837e-06
-1.33709e-06
3.06791e-06
-1.4853e-06
3.18543e-06
-1.58723e-06
3.16495e-06
-1.65192e-06
3.04343e-06
-1.68893e-06
2.86274e-06
-1.70543e-06
2.64644e-06
-1.70842e-06
2.41128e-06
-1.70347e-06
2.17081e-06
-1.69446e-06
1.93302e-06
-1.68409e-06
1.70223e-06
-1.6739e-06
1.4803e-06
-1.66444e-06
1.26729e-06
-1.65553e-06
1.06215e-06
-1.6465e-06
8.63333e-07
-1.6364e-06
6.6913e-07
-1.62418e-06
4.7794e-07
-1.60886e-06
2.88384e-07
-1.58964e-06
9.93538e-08
-1.56603e-06
-8.9972e-08
-1.53796e-06
-2.80278e-07
-1.50589e-06
-4.72195e-07
-1.47094e-06
-6.66576e-07
-1.43502e-06
-8.64849e-07
-1.40096e-06
-1.06957e-06
-1.37249e-06
-1.2852e-06
-1.35399e-06
-1.5191e-06
-1.34959e-06
-1.78252e-06
-1.36145e-06
-2.09066e-06
-1.3874e-06
-2.46072e-06
-1.41892e-06
-2.90688e-06
-1.44064e-06
-3.43399e-06
-1.42631e-06
-4.02869e-06
-1.31636e-06
-4.63077e-06
-1.07671e-06
-4.97217e-06
-6.69594e-07
-4.90614e-06
-3.51648e-06
-2.39289e-07
1.63556e-06
-5.13687e-07
2.2793e-06
-7.69646e-07
2.65704e-06
-9.93081e-07
3.0018e-06
-1.16305e-06
3.23788e-06
-1.28439e-06
3.30677e-06
-1.36665e-06
3.24721e-06
-1.41862e-06
3.09541e-06
-1.44807e-06
2.89219e-06
-1.4616e-06
2.65997e-06
-1.46534e-06
2.41502e-06
-1.46382e-06
2.16929e-06
-1.46018e-06
1.92939e-06
-1.45642e-06
1.69847e-06
-1.45346e-06
1.47734e-06
-1.45138e-06
1.26521e-06
-1.44968e-06
1.06044e-06
-1.44746e-06
8.61114e-07
-1.44366e-06
6.6533e-07
-1.43716e-06
4.71444e-07
-1.42694e-06
2.78166e-07
-1.41217e-06
8.45782e-08
-1.39225e-06
-1.09884e-07
-1.367e-06
-3.05536e-07
-1.33665e-06
-5.02543e-07
-1.30204e-06
-7.01181e-07
-1.26472e-06
-9.02174e-07
-1.22706e-06
-1.10723e-06
-1.19241e-06
-1.31984e-06
-1.16509e-06
-1.54643e-06
-1.14982e-06
-1.7978e-06
-1.15029e-06
-2.09019e-06
-1.16666e-06
-2.44435e-06
-1.1928e-06
-2.88075e-06
-1.21554e-06
-3.41125e-06
-1.2117e-06
-4.03253e-06
-1.14083e-06
-4.70164e-06
-9.25669e-07
-5.18733e-06
-5.76836e-07
-5.25497e-06
-4.09331e-06
-2.01399e-07
1.83696e-06
-4.39112e-07
2.51702e-06
-6.59268e-07
2.8772e-06
-8.45899e-07
3.18843e-06
-9.8189e-07
3.37387e-06
-1.0814e-06
3.40628e-06
-1.1486e-06
3.31441e-06
-1.19149e-06
3.1383e-06
-1.21661e-06
2.91731e-06
-1.22977e-06
2.67313e-06
-1.23609e-06
2.42134e-06
-1.23918e-06
2.17238e-06
-1.24145e-06
1.93166e-06
-1.24427e-06
1.70129e-06
-1.24806e-06
1.48114e-06
-1.2526e-06
1.26974e-06
-1.25718e-06
1.06503e-06
-1.26085e-06
8.64783e-07
-1.26253e-06
6.67007e-07
-1.26113e-06
4.7004e-07
-1.25562e-06
2.72664e-07
-1.24518e-06
7.41301e-08
-1.22916e-06
-1.25903e-07
-1.20725e-06
-3.27439e-07
-1.17956e-06
-5.3024e-07
-1.14666e-06
-7.34074e-07
-1.10979e-06
-9.39049e-07
-1.0709e-06
-1.14612e-06
-1.03289e-06
-1.35785e-06
-9.99686e-07
-1.57963e-06
-9.76141e-07
-1.82134e-06
-9.67001e-07
-2.09933e-06
-9.74491e-07
-2.43686e-06
-9.94839e-07
-2.8604e-06
-1.01632e-06
-3.38977e-06
-1.01865e-06
-4.03019e-06
-9.7061e-07
-4.74969e-06
-7.93229e-07
-5.36471e-06
-4.98823e-07
-5.54938e-06
-4.59213e-06
-1.59764e-07
1.99672e-06
-3.58509e-07
2.71576e-06
-5.41765e-07
3.06045e-06
-6.927e-07
3.33937e-06
-8.01785e-07
3.48296e-06
-8.82484e-07
3.48697e-06
-9.37102e-07
3.36903e-06
-9.73111e-07
3.17431e-06
-9.95728e-07
2.93992e-06
-1.00977e-06
2.68716e-06
-1.01927e-06
2.43084e-06
-1.02701e-06
2.18012e-06
-1.03472e-06
1.93938e-06
-1.04324e-06
1.70981e-06
-1.05267e-06
1.49056e-06
-1.06258e-06
1.27965e-06
-1.07221e-06
1.07466e-06
-1.08063e-06
8.73206e-07
-1.08683e-06
6.73208e-07
-1.0898e-06
4.73004e-07
-1.08856e-06
2.71426e-07
-1.08228e-06
6.78487e-08
-1.0703e-06
-1.37882e-07
-1.05222e-06
-3.45514e-07
-1.028e-06
-5.54457e-07
-9.98049e-07
-7.6403e-07
-9.63306e-07
-9.73792e-07
-9.25393e-07
-1.18403e-06
-8.8675e-07
-1.39649e-06
-8.50841e-07
-1.61554e-06
-8.22273e-07
-1.84991e-06
-8.06324e-07
-2.11527e-06
-8.06964e-07
-2.43622e-06
-8.23033e-07
-2.84433e-06
-8.44808e-07
-3.368e-06
-8.54978e-07
-4.02002e-06
-8.27135e-07
-4.77753e-06
-6.82236e-07
-5.50961e-06
-4.24064e-07
-5.80755e-06
-5.0162e-06
-1.17631e-07
2.11436e-06
-2.75402e-07
2.87353e-06
-4.22564e-07
3.20762e-06
-5.40666e-07
3.45747e-06
-6.26157e-07
3.56845e-06
-6.89398e-07
3.55022e-06
-7.33527e-07
3.41316e-06
-7.64055e-07
3.20484e-06
-7.85024e-07
2.96089e-06
-8.00208e-07
2.70235e-06
-8.12637e-07
2.44327e-06
-8.24308e-07
2.19179e-06
-8.36383e-07
1.95145e-06
-8.49293e-07
1.72272e-06
-8.62915e-07
1.50418e-06
-8.76753e-07
1.29349e-06
-8.90086e-07
1.08799e-06
-9.02073e-07
8.85193e-07
-9.11815e-07
6.8295e-07
-9.18403e-07
4.79592e-07
-9.20952e-07
2.73976e-07
-9.18651e-07
6.55472e-08
-9.10826e-07
-1.45707e-07
-8.97014e-07
-3.59327e-07
-8.77046e-07
-5.74426e-07
-8.51155e-07
-7.89921e-07
-8.20073e-07
-1.00487e-06
-7.85131e-07
-1.21897e-06
-7.4839e-07
-1.43324e-06
-7.1284e-07
-1.65109e-06
-6.82659e-07
-1.88009e-06
-6.63157e-07
-2.13478e-06
-6.59468e-07
-2.43991e-06
-6.72913e-07
-2.83088e-06
-6.96146e-07
-3.34476e-06
-7.1312e-07
-4.00305e-06
-6.97902e-07
-4.79275e-06
-5.92452e-07
-5.61506e-06
-3.7301e-07
-6.02699e-06
-5.38921e-06
-7.34098e-08
2.18777e-06
-1.91981e-07
2.9921e-06
-3.04483e-07
3.32012e-06
-3.919e-07
3.54489e-06
-4.5599e-07
3.63254e-06
-5.03478e-07
3.5977e-06
-5.38124e-07
3.4478e-06
-5.63753e-07
3.23047e-06
-5.83184e-07
2.98032e-06
-5.99124e-07
2.71829e-06
-6.13667e-07
2.45781e-06
-6.2813e-07
2.20625e-06
-6.4319e-07
1.96651e-06
-6.58989e-07
1.73852e-06
-6.75285e-07
1.52048e-06
-6.91594e-07
1.3098e-06
-7.07289e-07
1.10369e-06
-7.21662e-07
8.99566e-07
-7.33961e-07
6.95249e-07
-7.43411e-07
4.89042e-07
-7.49235e-07
2.79799e-07
-7.50677e-07
6.69897e-08
-7.47072e-07
-1.49312e-07
-7.37905e-07
-3.68494e-07
-7.229e-07
-5.8943e-07
-7.02133e-07
-8.10688e-07
-6.76134e-07
-1.03087e-06
-6.45984e-07
-1.24912e-06
-6.13423e-07
-1.4658e-06
-5.8103e-07
-1.68348e-06
-5.52511e-07
-1.90861e-06
-5.3294e-07
-2.15435e-06
-5.28082e-07
-2.44477e-06
-5.41245e-07
-2.81772e-06
-5.67766e-07
-3.31824e-06
-5.93024e-07
-3.97779e-06
-5.90284e-07
-4.79549e-06
-5.14597e-07
-5.69074e-06
-3.27054e-07
-6.21454e-06
-5.71626e-06
-3.25457e-08
2.22031e-06
-1.10716e-07
3.07027e-06
-1.88852e-07
3.39825e-06
-2.47884e-07
3.60392e-06
-2.92104e-07
3.67676e-06
-3.24785e-07
3.63039e-06
-3.50353e-07
3.47337e-06
-3.71068e-07
3.25119e-06
-3.88535e-07
2.99779e-06
-4.04412e-07
2.73417e-06
-4.19947e-07
2.47335e-06
-4.35862e-07
2.22217e-06
-4.52436e-07
1.98309e-06
-4.69611e-07
1.75569e-06
-4.87101e-07
1.53797e-06
-5.04484e-07
1.32718e-06
-5.21259e-07
1.12046e-06
-5.36881e-07
9.15188e-07
-5.50764e-07
7.09133e-07
-5.62292e-07
5.00571e-07
-5.70824e-07
2.88331e-07
-5.75697e-07
7.18631e-08
-5.76286e-07
-1.48723e-07
-5.72057e-07
-3.72723e-07
-5.6265e-07
-5.98837e-07
-5.47991e-07
-8.25347e-07
-5.28409e-07
-1.05045e-06
-5.04743e-07
-1.27279e-06
-4.78435e-07
-1.49211e-06
-4.51685e-07
-1.71023e-06
-4.27728e-07
-1.93257e-06
-4.11221e-07
-2.17085e-06
-4.0812e-07
-2.44787e-06
-4.23282e-07
-2.80256e-06
-4.54638e-07
-3.28689e-06
-4.88913e-07
-3.94351e-06
-5.00899e-07
-4.7835e-06
-4.52281e-07
-5.73936e-06
-2.93605e-07
-6.37321e-06
-6.00987e-06
1.208e-08
2.20823e-06
-2.95586e-08
3.11191e-06
-7.58086e-08
3.4445e-06
-1.09248e-07
3.63736e-06
-1.34448e-07
3.70196e-06
-1.52884e-07
3.64882e-06
-1.69299e-07
3.48979e-06
-1.84611e-07
3.2665e-06
-1.99327e-07
3.01251e-06
-2.14077e-07
2.74892e-06
-2.29349e-07
2.48862e-06
-2.45331e-07
2.23815e-06
-2.61982e-07
1.99974e-06
-2.79108e-07
1.77282e-06
-2.9642e-07
1.55528e-06
-3.13589e-07
1.34435e-06
-3.3026e-07
1.13713e-06
-3.46058e-07
9.30986e-07
-3.60583e-07
7.23657e-07
-3.73396e-07
5.13384e-07
-3.84018e-07
2.98953e-07
-3.91925e-07
7.977e-08
-3.96571e-07
-1.44077e-07
-3.97449e-07
-3.71845e-07
-3.94146e-07
-6.02139e-07
-3.86458e-07
-8.33035e-07
-3.74518e-07
-1.06239e-06
-3.58912e-07
-1.2884e-06
-3.40781e-07
-1.51024e-06
-3.21958e-07
-1.72905e-06
-3.0522e-07
-1.94931e-06
-2.94728e-07
-2.18135e-06
-2.96292e-07
-2.4463e-06
-3.15819e-07
-2.78303e-06
-3.53624e-07
-3.24908e-06
-3.97879e-07
-3.89926e-06
-4.25166e-07
-4.75622e-06
-3.98965e-07
-5.76556e-06
-2.64502e-07
-6.50767e-06
-6.27437e-06
5.18251e-08
2.15641e-06
4.86797e-08
3.11506e-06
3.31825e-08
3.46e-06
2.32117e-08
3.64733e-06
1.70213e-08
3.70815e-06
1.2133e-08
3.65371e-06
5.34813e-09
3.49657e-06
-3.39595e-09
3.27524e-06
-1.40518e-08
3.02316e-06
-2.64228e-08
2.76129e-06
-4.01271e-08
2.50232e-06
-5.48307e-08
2.25285e-06
-7.02211e-08
2.01513e-06
-8.60031e-08
1.7886e-06
-1.01913e-07
1.57119e-06
-1.17721e-07
1.36015e-06
-1.33224e-07
1.15263e-06
-1.48225e-07
9.45987e-07
-1.62515e-07
7.37947e-07
-1.75847e-07
5.26716e-07
-1.87931e-07
3.11037e-07
-1.98412e-07
9.02508e-08
-2.06872e-07
-1.35617e-07
-2.1288e-07
-3.65837e-07
-2.16019e-07
-5.99001e-07
-2.15988e-07
-8.33066e-07
-2.1274e-07
-1.06564e-06
-2.06605e-07
-1.29453e-06
-1.98406e-07
-1.51844e-06
-1.8959e-07
-1.73787e-06
-1.82471e-07
-1.95643e-06
-1.8068e-07
-2.18314e-06
-1.89654e-07
-2.43733e-06
-2.15851e-07
-2.75683e-06
-2.61731e-07
-3.2032e-06
-3.17245e-07
-3.84374e-06
-3.60226e-07
-4.71324e-06
-3.56497e-07
-5.76929e-06
-2.42579e-07
-6.62159e-06
-6.51695e-06
9.14503e-08
2.06496e-06
1.24847e-07
3.08166e-06
1.38961e-07
3.44589e-06
1.52499e-07
3.63379e-06
1.65649e-07
3.695e-06
1.7507e-07
3.64429e-06
1.77357e-07
3.49428e-06
1.75073e-07
3.27753e-06
1.68937e-07
3.0293e-06
1.59993e-07
2.77023e-06
1.49092e-07
2.51322e-06
1.36921e-07
2.26503e-06
1.24003e-07
2.02805e-06
1.10709e-07
1.8019e-06
9.72707e-08
1.58463e-06
8.38131e-08
1.37361e-06
7.03922e-08
1.16606e-06
5.70295e-08
9.5935e-07
4.37435e-08
7.51233e-07
3.05776e-08
5.39882e-07
1.7624e-08
3.23991e-07
5.04297e-09
1.02832e-07
-6.91888e-09
-1.23655e-07
-1.79489e-08
-3.54807e-07
-2.76802e-08
-5.89269e-07
-3.57678e-08
-8.24978e-07
-4.20238e-08
-1.05939e-06
-4.65374e-08
-1.29002e-06
-4.98024e-08
-1.51517e-06
-5.28592e-08
-1.73481e-06
-5.7525e-08
-1.95176e-06
-6.68642e-08
-2.1738e-06
-8.58319e-08
-2.41836e-06
-1.21029e-07
-2.72164e-06
-1.76581e-07
-3.14765e-06
-2.44314e-07
-3.77601e-06
-3.02491e-07
-4.65506e-06
-3.19816e-07
-5.75197e-06
-2.23818e-07
-6.71759e-06
-6.74077e-06
1.30041e-07
1.93492e-06
1.98814e-07
3.01289e-06
2.40699e-07
3.404e-06
2.75881e-07
3.59861e-06
3.07601e-07
3.66328e-06
3.31747e-07
3.62014e-06
3.44603e-07
3.48143e-06
3.50309e-07
3.27182e-06
3.50256e-07
3.02935e-06
3.46096e-07
2.77439e-06
3.3926e-07
2.52006e-06
3.30809e-07
2.27348e-06
3.21468e-07
2.03739e-06
3.11672e-07
1.81169e-06
3.01623e-07
1.59468e-06
2.91349e-07
1.38389e-06
2.80768e-07
1.17664e-06
2.69734e-07
9.70385e-07
2.58079e-07
7.62887e-07
2.45648e-07
5.52313e-07
2.32327e-07
3.37312e-07
2.18069e-07
1.1709e-07
2.02924e-07
-1.0851e-07
1.87052e-07
-3.38935e-07
1.70719e-07
-5.72936e-07
1.54256e-07
-8.08515e-07
1.37945e-07
-1.04308e-06
1.21902e-07
-1.27397e-06
1.05944e-07
-1.49921e-06
8.94518e-08
-1.71832e-06
7.11297e-08
-1.93344e-06
4.85285e-08
-2.1512e-06
1.72564e-08
-2.38709e-06
-2.91679e-08
-2.67521e-06
-9.59724e-08
-3.08084e-06
-1.77211e-07
-3.69477e-06
-2.51042e-07
-4.58123e-06
-2.8708e-07
-5.71593e-06
-2.09744e-07
-6.79493e-06
-6.95051e-06
1.66382e-07
1.76853e-06
2.6979e-07
2.90948e-06
3.38679e-07
3.33511e-06
3.95613e-07
3.54167e-06
4.43723e-07
3.61517e-06
4.82388e-07
3.58148e-06
5.07753e-07
3.45606e-06
5.22905e-07
3.25667e-06
5.30336e-07
3.02192e-06
5.32366e-07
2.77236e-06
5.30904e-07
2.52152e-06
5.27354e-07
2.27703e-06
5.22633e-07
2.04211e-06
5.17251e-07
1.81707e-06
5.1139e-07
1.60054e-06
5.04999e-07
1.39028e-06
4.97869e-07
1.18377e-06
4.89704e-07
9.7855e-07
4.80161e-07
7.7243e-07
4.68897e-07
5.63578e-07
4.55594e-07
3.50615e-07
4.40003e-07
1.32681e-07
4.21971e-07
-9.04775e-08
4.01482e-07
-3.18447e-07
3.78661e-07
-5.50115e-07
3.53761e-07
-7.83615e-07
3.27096e-07
-1.01641e-06
2.98927e-07
-1.2458e-06
2.69345e-07
-1.46963e-06
2.38136e-07
-1.68711e-06
2.04542e-07
-1.89984e-06
1.66782e-07
-2.11344e-06
1.21189e-07
-2.3415e-06
6.15883e-08
-2.61561e-06
-1.81289e-08
-3.00113e-06
-1.1393e-07
-3.59897e-06
-2.04295e-07
-4.49086e-06
-2.57575e-07
-5.66265e-06
-1.99515e-07
-6.85299e-06
-7.15002e-06
1.99513e-07
1.56902e-06
3.3625e-07
2.77274e-06
4.31078e-07
3.24029e-06
5.08371e-07
3.46438e-06
5.73714e-07
3.54982e-06
6.28001e-07
3.52719e-06
6.66937e-07
3.41713e-06
6.92843e-07
3.23076e-06
7.0922e-07
3.00554e-06
7.18906e-07
2.76268e-06
7.24189e-07
2.51624e-06
7.26753e-07
2.27446e-06
7.27695e-07
2.04117e-06
7.27601e-07
1.81717e-06
7.26656e-07
1.60149e-06
7.2475e-07
1.39218e-06
7.21574e-07
1.18694e-06
7.16697e-07
9.83427e-07
7.09623e-07
7.79505e-07
6.99833e-07
5.73367e-07
6.86826e-07
3.63621e-07
6.70155e-07
1.49352e-07
6.49466e-07
-6.97883e-08
6.24564e-07
-2.93545e-07
5.95414e-07
-5.20964e-07
5.62136e-07
-7.50337e-07
5.25001e-07
-9.79275e-07
4.84345e-07
-1.20515e-06
4.40472e-07
-1.42576e-06
3.93544e-07
-1.64018e-06
3.43349e-07
-1.84965e-06
2.88816e-07
-2.0589e-06
2.27073e-07
-2.27975e-06
1.52426e-07
-2.54097e-06
5.82567e-08
-2.90696e-06
-5.30751e-08
-3.48764e-06
-1.60322e-07
-4.38362e-06
-2.28284e-07
-5.59469e-06
-1.93016e-07
-6.88825e-06
-7.34304e-06
2.27649e-07
1.34137e-06
3.95992e-07
2.6044e-06
5.1608e-07
3.1202e-06
6.13438e-07
3.36702e-06
6.9649e-07
3.46677e-06
7.65833e-07
3.45785e-06
8.201e-07
3.36286e-06
8.58879e-07
3.19198e-06
8.86171e-07
2.97825e-06
9.05278e-07
2.74357e-06
9.18859e-07
2.50266e-06
9.2887e-07
2.26445e-06
9.36589e-07
2.03345e-06
9.42692e-07
1.81107e-06
9.47387e-07
1.59679e-06
9.50533e-07
1.38904e-06
9.51747e-07
1.18573e-06
9.50495e-07
9.84679e-07
9.46149e-07
7.8385e-07
9.38045e-07
5.81472e-07
9.25516e-07
3.76151e-07
9.07937e-07
1.66931e-07
8.84766e-07
-4.66168e-08
8.55624e-07
-2.64403e-07
8.20288e-07
-4.85628e-07
7.7871e-07
-7.08759e-07
7.31065e-07
-9.31631e-07
6.77709e-07
-1.15179e-06
6.19105e-07
-1.36715e-06
5.55745e-07
-1.57682e-06
4.87959e-07
-1.78186e-06
4.15375e-07
-1.98632e-06
3.35889e-07
-2.20027e-06
2.44535e-07
-2.44961e-06
1.34233e-07
-2.79665e-06
5.37599e-09
-3.35878e-06
-1.19629e-07
-4.25861e-06
-2.03421e-07
-5.51089e-06
-1.84657e-07
-6.90702e-06
-7.5277e-06
2.48068e-07
1.0933e-06
4.45653e-07
2.40681e-06
5.90617e-07
2.97523e-06
7.0816e-07
3.24948e-06
8.08918e-07
3.36601e-06
8.94676e-07
3.37209e-06
9.65374e-07
3.29216e-06
1.01909e-06
3.13827e-06
1.05957e-06
2.93777e-06
1.09027e-06
2.71286e-06
1.11407e-06
2.47886e-06
1.13314e-06
2.24538e-06
1.14894e-06
2.01765e-06
1.16228e-06
1.79773e-06
1.17341e-06
1.58566e-06
1.18221e-06
1.38024e-06
1.18826e-06
1.17968e-06
1.19095e-06
9.81989e-07
1.18955e-06
7.85243e-07
1.18329e-06
5.87735e-07
1.17136e-06
3.88084e-07
1.15298e-06
1.85312e-07
1.12741e-06
-2.10505e-08
1.09414e-06
-2.31132e-07
1.05271e-06
-4.44203e-07
1.00291e-06
-6.58953e-07
9.44769e-07
-8.73493e-07
8.78631e-07
-1.08565e-06
8.05063e-07
-1.29359e-06
7.24811e-07
-1.49657e-06
6.38631e-07
-1.69568e-06
5.46866e-07
-1.89455e-06
4.4836e-07
-2.10176e-06
3.3894e-07
-2.34019e-06
2.11598e-07
-2.66931e-06
6.53222e-08
-3.21251e-06
-7.95771e-08
-4.11371e-06
-1.80519e-07
-5.40995e-06
-1.7722e-07
-6.91032e-06
-7.70492e-06
2.56232e-07
8.37071e-07
4.80187e-07
2.18286e-06
6.50433e-07
2.80499e-06
7.88919e-07
3.11099e-06
9.07941e-07
3.24699e-06
1.01153e-06
3.2685e-06
1.0998e-06
3.20389e-06
1.17082e-06
3.06725e-06
1.22703e-06
2.88156e-06
1.27184e-06
2.66806e-06
1.30819e-06
2.44252e-06
1.33833e-06
2.21523e-06
1.36387e-06
1.99211e-06
1.38574e-06
1.77587e-06
1.4043e-06
1.56709e-06
1.41949e-06
1.36505e-06
1.4309e-06
1.16827e-06
1.4379e-06
9.74998e-07
1.43969e-06
7.83453e-07
1.43541e-06
5.92013e-07
1.42416e-06
3.99336e-07
1.40505e-06
2.0442e-07
1.37709e-06
6.90723e-09
1.33975e-06
-1.93791e-07
1.29227e-06
-3.96727e-07
1.23428e-06
-6.00956e-07
1.16567e-06
-8.04882e-07
1.08671e-06
-1.0067e-06
9.98051e-07
-1.20492e-06
9.0062e-07
-1.39914e-06
7.95521e-07
-1.59058e-06
6.83708e-07
-1.78274e-06
5.64974e-07
-1.98303e-06
4.36148e-07
-2.21137e-06
2.9082e-07
-2.52398e-06
1.26646e-07
-3.04833e-06
-3.68638e-08
-3.9502e-06
-1.54209e-07
-5.29261e-06
-1.72589e-07
-6.89194e-06
-7.87751e-06
2.46661e-07
5.9041e-07
4.94349e-07
1.93517e-06
6.90764e-07
2.60857e-06
8.51203e-07
2.95056e-06
9.89582e-07
3.10861e-06
1.11227e-06
3.14581e-06
1.21998e-06
3.09618e-06
1.31077e-06
2.97646e-06
1.38568e-06
2.80664e-06
1.44745e-06
2.60628e-06
1.49896e-06
2.39101e-06
1.54252e-06
2.17167e-06
1.57981e-06
1.95482e-06
1.61187e-06
1.74382e-06
1.63916e-06
1.5398e-06
1.6617e-06
1.3425e-06
1.67916e-06
1.15081e-06
1.69092e-06
9.63234e-07
1.69621e-06
7.78172e-07
1.69409e-06
5.94127e-07
1.6836e-06
4.09829e-07
1.66371e-06
2.24307e-07
1.63357e-06
3.70466e-08
1.59207e-06
-1.52288e-07
1.53852e-06
-3.43177e-07
1.47233e-06
-5.34771e-07
1.39327e-06
-7.25821e-07
1.30153e-06
-9.14954e-07
1.19776e-06
-1.10116e-06
1.08305e-06
-1.28442e-06
9.58736e-07
-1.46627e-06
8.26242e-07
-1.65025e-06
6.86259e-07
-1.84305e-06
5.36917e-07
-2.06202e-06
3.72705e-07
-2.35977e-06
1.91061e-07
-2.86669e-06
1.16551e-08
-3.7708e-06
-1.30493e-07
-5.15046e-06
-1.69243e-07
-6.85319e-06
-8.04675e-06
2.13972e-07
3.76439e-07
4.84006e-07
1.66514e-06
7.05905e-07
2.38667e-06
8.89314e-07
2.76715e-06
1.04872e-06
2.94921e-06
1.19194e-06
3.00259e-06
1.32115e-06
2.96698e-06
1.43436e-06
2.86325e-06
1.53129e-06
2.70971e-06
1.6135e-06
2.52407e-06
1.68334e-06
2.32117e-06
1.74309e-06
2.11192e-06
1.79449e-06
1.90342e-06
1.83869e-06
1.69962e-06
1.87629e-06
1.5022e-06
1.90742e-06
1.31137e-06
1.93185e-06
1.12638e-06
1.94905e-06
9.46038e-07
1.95826e-06
7.68959e-07
1.95858e-06
5.93805e-07
1.949e-06
4.19408e-07
1.92847e-06
2.44838e-07
1.89595e-06
6.95651e-08
1.85031e-06
-1.06648e-07
1.79068e-06
-2.8354e-07
1.71633e-06
-4.60429e-07
1.62692e-06
-6.36404e-07
1.52254e-06
-8.1058e-07
1.40387e-06
-9.82482e-07
1.27204e-06
-1.1526e-06
1.12854e-06
-1.32277e-06