/*--------------------------------*- C++ -*----------------------------------*\
  =========                 |
  \\      /  F ield         | OpenFOAM: The Open Source CFD Toolbox
   \\    /   O peration     | Website:  https://openfoam.org
    \\  /    A nd           | Version:  12
     \\/     M anipulation  |
\*---------------------------------------------------------------------------*/
FoamFile
{
    format      ascii;
    class       volVectorField;
    location    "3.5";
    object      U;
}
// * * * * * * * * * * * * * * * * * * * * * * * * * * * * * * * * * * * * * //

dimensions      [0 1 -1 0 0 0 0];

internalField   nonuniform List<vector> 
1600
(
(0.000859147 -0.000784398 0)
(0.00436388 -0.00124841 0)
(0.00800048 -0.00123766 0)
(0.0104568 -0.00063497 0)
(0.0115001 -0.000160015 0)
(0.0114928 -0.000127779 0)
(0.0112356 -0.000294612 0)
(0.0108128 -0.00055637 0)
(0.010218 -0.000661124 0)
(0.00903404 -0.000688034 0)
(0.00704009 -0.000870408 0)
(0.00315104 -0.000588598 0)
(-0.00454068 0.000416286 0)
(-0.0137502 0.00348493 0)
(-0.0276422 0.00786202 0)
(-0.0473747 0.0100973 0)
(-0.0652691 0.00986 0)
(-0.0817104 0.0090607 0)
(-0.0957043 0.00791329 0)
(-0.107549 0.00671183 0)
(-0.117063 0.00546669 0)
(-0.124388 0.00422687 0)
(-0.129447 0.00296261 0)
(-0.131894 0.00177674 0)
(-0.132533 0.000347231 0)
(-0.130056 -0.00148331 0)
(-0.124973 -0.00309066 0)
(-0.116579 -0.0049966 0)
(-0.10497 -0.0067826 0)
(-0.0902183 -0.00886615 0)
(-0.0724218 -0.0107804 0)
(-0.0519545 -0.0121287 0)
(-0.030087 -0.0125165 0)
(-0.00765304 -0.0114318 0)
(0.0110358 -0.00928418 0)
(0.0243592 -0.00326737 0)
(0.0255872 0.0029054 0)
(0.0202382 0.00444557 0)
(0.00962335 0.00352319 0)
(0.00199841 0.0024099 0)
(0.00153656 -0.00437286 0)
(0.00735224 -0.00663942 0)
(0.0114453 -0.00527433 0)
(0.0138063 -0.00277954 0)
(0.0143576 -0.00063731 0)
(0.0131475 0.000586467 0)
(0.0106164 0.00110141 0)
(0.00681956 0.00152496 0)
(0.000968979 0.00258385 0)
(-0.00792803 0.00459448 0)
(-0.0210057 0.00789614 0)
(-0.0401996 0.0135094 0)
(-0.0628868 0.0196981 0)
(-0.0848403 0.0250389 0)
(-0.103581 0.0271833 0)
(-0.119437 0.0262593 0)
(-0.133081 0.0240132 0)
(-0.144565 0.0210149 0)
(-0.154016 0.0177524 0)
(-0.161556 0.0144407 0)
(-0.167209 0.0111302 0)
(-0.17104 0.00784008 0)
(-0.173015 0.00450001 0)
(-0.173132 0.00104214 0)
(-0.171362 -0.00272688 0)
(-0.167421 -0.00680916 0)
(-0.161222 -0.0111467 0)
(-0.152492 -0.0158321 0)
(-0.140936 -0.0207363 0)
(-0.126105 -0.025673 0)
(-0.108472 -0.0304075 0)
(-0.0881061 -0.0340849 0)
(-0.0653832 -0.0353805 0)
(-0.0418928 -0.0332565 0)
(-0.0185656 -0.0262489 0)
(0.00151347 -0.0126366 0)
(0.0146471 0.0029671 0)
(0.0147394 0.0098656 0)
(0.00884551 0.0120086 0)
(0.00146238 0.00876707 0)
(0.00221497 -0.00959952 0)
(0.00766558 -0.0115984 0)
(0.00979733 -0.00814323 0)
(0.0101239 -0.00335017 0)
(0.00834177 0.000612869 0)
(0.0045467 0.0034521 0)
(-0.00191786 0.0059903 0)
(-0.0120114 0.00955362 0)
(-0.0267642 0.015377 0)
(-0.0461901 0.0233352 0)
(-0.0682885 0.0315239 0)
(-0.0895674 0.0372483 0)
(-0.10877 0.0404072 0)
(-0.124766 0.0412898 0)
(-0.13784 0.0399949 0)
(-0.148516 0.0371381 0)
(-0.157315 0.0332664 0)
(-0.164473 0.0288127 0)
(-0.170245 0.0241541 0)
(-0.174738 0.0194414 0)
(-0.178018 0.0147216 0)
(-0.180203 0.00987541 0)
(-0.181101 0.00506523 0)
(-0.180706 6.0859e-05 0)
(-0.178882 -0.00524389 0)
(-0.175687 -0.0109461 0)
(-0.170953 -0.0172687 0)
(-0.164455 -0.0243143 0)
(-0.156018 -0.0320264 0)
(-0.145234 -0.0400574 0)
(-0.131631 -0.0478147 0)
(-0.115217 -0.0542845 0)
(-0.0956963 -0.0577237 0)
(-0.0743993 -0.056886 0)
(-0.0512842 -0.0488591 0)
(-0.027015 -0.0311281 0)
(-0.00458938 -0.00551114 0)
(0.00276484 0.0101048 0)
(0.00247842 0.0157974 0)
(0.000120654 0.0122353 0)
(0.00240663 -0.0148447 0)
(0.00518017 -0.0142189 0)
(0.00472104 -0.00805475 0)
(0.00199847 -0.00101128 0)
(-0.00306624 0.0051943 0)
(-0.0112132 0.0111343 0)
(-0.0232387 0.0178641 0)
(-0.0395135 0.0262223 0)
(-0.0591306 0.0356751 0)
(-0.0804401 0.0446456 0)
(-0.100741 0.0511466 0)
(-0.117536 0.0543208 0)
(-0.131122 0.054815 0)
(-0.141794 0.0530603 0)
(-0.150287 0.0496412 0)
(-0.157121 0.0451844 0)
(-0.162613 0.0400613 0)
(-0.16703 0.0345221 0)
(-0.170878 0.0286172 0)
(-0.173897 0.0227385 0)
(-0.176165 0.0168637 0)
(-0.177488 0.0110941 0)
(-0.177966 0.00513345 0)
(-0.177555 -0.00103073 0)
(-0.176237 -0.00753445 0)
(-0.173916 -0.0144841 0)
(-0.17051 -0.0220533 0)
(-0.165872 -0.0303366 0)
(-0.159857 -0.0394905 0)
(-0.152391 -0.0496301 0)
(-0.143248 -0.0603194 0)
(-0.132195 -0.0706137 0)
(-0.118459 -0.0784676 0)
(-0.100481 -0.0802689 0)
(-0.0794248 -0.0741795 0)
(-0.0540772 -0.0559728 0)
(-0.023825 -0.0234477 0)
(-0.00548658 0.00399351 0)
(-0.00127467 0.0145259 0)
(-3.48097e-05 0.0123112 0)
(0.0015403 -0.0173252 0)
(0.0011091 -0.0136091 0)
(-0.00274039 -0.00444053 0)
(-0.0087282 0.00490062 0)
(-0.0175274 0.0141413 0)
(-0.0298222 0.0238221 0)
(-0.0458373 0.0344627 0)
(-0.0646838 0.0456216 0)
(-0.0846241 0.0558604 0)
(-0.103182 0.0632612 0)
(-0.118118 0.0666805 0)
(-0.129792 0.0669283 0)
(-0.138971 0.0648926 0)
(-0.146004 0.0610939 0)
(-0.151527 0.0561139 0)
(-0.155948 0.0503151 0)
(-0.159658 0.0439874 0)
(-0.162655 0.0375054 0)
(-0.164806 0.0310903 0)
(-0.166132 0.0246401 0)
(-0.166953 0.0181778 0)
(-0.167211 0.0116851 0)
(-0.167049 0.0050638 0)
(-0.166446 -0.00178471 0)
(-0.165391 -0.00901211 0)
(-0.163744 -0.0167979 0)
(-0.161542 -0.025321 0)
(-0.158679 -0.0347175 0)
(-0.155057 -0.0450402 0)
(-0.150495 -0.0562044 0)
(-0.144724 -0.0679192 0)
(-0.1374 -0.0798118 0)
(-0.128396 -0.0910919 0)
(-0.116609 -0.09867 0)
(-0.0996872 -0.0976999 0)
(-0.0769745 -0.0843497 0)
(-0.0468204 -0.0538242 0)
(-0.0137227 -0.0107919 0)
(-0.00162336 0.0101633 0)
(0.000648698 0.0118594 0)
(-0.000396551 -0.017266 0)
(-0.00430175 -0.00927297 0)
(-0.011159 0.00231316 0)
(-0.0202432 0.0143012 0)
(-0.0322838 0.0267276 0)
(-0.0474024 0.0396862 0)
(-0.0649248 0.0526717 0)
(-0.0833845 0.0644517 0)
(-0.100544 0.0731895 0)
(-0.114179 0.0773654 0)
(-0.12448 0.0777225 0)
(-0.132473 0.075564 0)
(-0.138533 0.0715353 0)
(-0.143067 0.0661963 0)
(-0.146489 0.0599983 0)
(-0.148968 0.053328 0)
(-0.150601 0.0464043 0)
(-0.151629 0.0393526 0)
(-0.152118 0.0323125 0)
(-0.152388 0.0253319 0)
(-0.152306 0.0184472 0)
(-0.151958 0.0115881 0)
(-0.151364 0.00465267 0)
(-0.150547 -0.00248571 0)
(-0.149503 -0.00998526 0)
(-0.148235 -0.0180556 0)
(-0.146783 -0.0268919 0)
(-0.145129 -0.0366949 0)
(-0.143239 -0.0476167 0)
(-0.141002 -0.0596977 0)
(-0.13821 -0.0727474 0)
(-0.134524 -0.0861943 0)
(-0.129383 -0.098977 0)
(-0.121821 -0.109743 0)
(-0.110639 -0.115544 0)
(-0.0930056 -0.109922 0)
(-0.0674812 -0.0874829 0)
(-0.0304412 -0.041954 0)
(-0.00366449 -0.00019621 0)
(0.00148267 0.0114634 0)
(-0.00258464 -0.0130642 0)
(-0.00969106 -0.00178046 0)
(-0.0190722 0.01197 0)
(-0.0307217 0.0264423 0)
(-0.0449488 0.0415603 0)
(-0.0611285 0.0564846 0)
(-0.0781818 0.0700732 0)
(-0.0942764 0.0805967 0)
(-0.107162 0.086252 0)
(-0.11658 0.0873018 0)
(-0.123627 0.0853439 0)
(-0.128851 0.0813051 0)
(-0.132514 0.0757572 0)
(-0.134987 0.0692368 0)
(-0.13655 0.0621225 0)
(-0.137391 0.0546926 0)
(-0.137696 0.0471478 0)
(-0.137642 0.0396437 0)
(-0.137308 0.0322816 0)
(-0.136789 0.025065 0)
(-0.136077 0.017971 0)
(-0.135233 0.0109339 0)
(-0.134274 0.0038484 0)
(-0.133236 -0.00340628 0)
(-0.132148 -0.0109819 0)
(-0.131053 -0.0190764 0)
(-0.130003 -0.0278912 0)
(-0.129034 -0.0376428 0)
(-0.128159 -0.048532 0)
(-0.127339 -0.0607019 0)
(-0.126452 -0.0741553 0)
(-0.125219 -0.0886525 0)
(-0.123115 -0.103432 0)
(-0.11927 -0.11692 0)
(-0.112217 -0.126693 0)
(-0.100178 -0.128906 0)
(-0.080805 -0.116533 0)
(-0.0511113 -0.0810052 0)
(-0.0109792 -0.0182537 0)
(0.00231069 0.0102327 0)
(-0.00448354 -0.00599456 0)
(-0.0141298 0.00843074 0)
(-0.0254335 0.023822 0)
(-0.0389091 0.0403059 0)
(-0.0540196 0.057062 0)
(-0.0699047 0.0725997 0)
(-0.085202 0.0852859 0)
(-0.0978353 0.0930908 0)
(-0.106946 0.0955181 0)
(-0.113422 0.0941528 0)
(-0.118119 0.0903504 0)
(-0.121251 0.0847758 0)
(-0.123146 0.0780039 0)
(-0.124139 0.0705364 0)
(-0.124448 0.0627034 0)
(-0.124269 0.0547461 0)
(-0.123766 0.046841 0)
(-0.123052 0.0390974 0)
(-0.122185 0.0315611 0)
(-0.121207 0.0242132 0)
(-0.120135 0.0170168 0)
(-0.119 0.00990353 0)
(-0.117825 0.00277604 0)
(-0.116643 -0.00448348 0)
(-0.115497 -0.0120217 0)
(-0.114449 -0.0200193 0)
(-0.11357 -0.0286789 0)
(-0.112934 -0.0382252 0)
(-0.112596 -0.048885 0)
(-0.112567 -0.060856 0)
(-0.112782 -0.0742446 0)
(-0.113051 -0.0889596 0)
(-0.112927 -0.104588 0)
(-0.111562 -0.120094 0)
(-0.107692 -0.133437 0)
(-0.0996688 -0.141163 0)
(-0.0859342 -0.137792 0)
(-0.0633836 -0.114457 0)
(-0.025225 -0.0525529 0)
(0.00128707 0.00376476 0)
(-0.00560661 0.00371432 0)
(-0.0171748 0.0206349 0)
(-0.0297962 0.0371909 0)
(-0.0441165 0.05487 0)
(-0.0591611 0.0721356 0)
(-0.07381 0.0871305 0)
(-0.086553 0.0976126 0)
(-0.0959518 0.102263 0)
(-0.102325 0.102028 0)
(-0.106798 0.0987612 0)
(-0.109739 0.0934114 0)
(-0.111386 0.086577 0)
(-0.112097 0.0788624 0)
(-0.112139 0.0707028 0)
(-0.111708 0.0623804 0)
(-0.110979 0.0540995 0)
(-0.110069 0.0459897 0)
(-0.10905 0.0381137 0)
(-0.107953 0.0304834 0)
(-0.106799 0.0230697 0)
(-0.105598 0.0158256 0)
(-0.104359 0.00868212 0)
(-0.103099 0.00155114 0)
(-0.101842 -0.0056721 0)
(-0.100631 -0.0131196 0)
(-0.0995326 -0.0209517 0)
(-0.0986333 -0.0293606 0)
(-0.0980323 -0.0385732 0)
(-0.0978251 -0.048843 0)
(-0.0980765 -0.0604285 0)
(-0.0987832 -0.0735436 0)
(-0.0998212 -0.0882654 0)
(-0.100877 -0.1044 0)
(-0.101241 -0.121273 0)
(-0.0996823 -0.137286 0)
(-0.0946054 -0.149397 0)
(-0.0847659 -0.152355 0)
(-0.0679244 -0.139714 0)
(-0.0403394 -0.0942758 0)
(-0.00352674 -0.010471 0)
(-0.0063734 0.0151405 0)
(-0.0189791 0.0340504 0)
(-0.0320572 0.0511806 0)
(-0.0463502 0.0691551 0)
(-0.0605596 0.0861021 0)
(-0.0735075 0.099522 0)
(-0.0836821 0.10724 0)
(-0.0904799 0.108921 0)
(-0.0950625 0.106614 0)
(-0.0980944 0.101757 0)
(-0.0998017 0.0951043 0)
(-0.100493 0.0872873 0)
(-0.100496 0.0788771 0)
(-0.100028 0.0702364 0)
(-0.0992661 0.0616066 0)
(-0.0983416 0.0531452 0)
(-0.0973308 0.0449342 0)
(-0.0962748 0.0369991 0)
(-0.0951881 0.0293262 0)
(-0.0940734 0.0218757 0)
(-0.0929214 0.0145947 0)
(-0.0917256 0.00741895 0)
(-0.0904852 0.000270489 0)
(-0.0892141 -0.00693847 0)
(-0.0879494 -0.0143198 0)
(-0.0867538 -0.0220073 0)
(-0.0857186 -0.0301707 0)
(-0.0849589 -0.0390239 0)
(-0.0846001 -0.0488289 0)
(-0.0847519 -0.059885 0)
(-0.0854682 -0.0724935 0)
(-0.0866964 -0.0868845 0)
(-0.0882199 -0.103095 0)
(-0.0895383 -0.120825 0)
(-0.0895556 -0.138989 0)
(-0.0865877 -0.154999 0)
(-0.0797852 -0.16299 0)
(-0.0669498 -0.158302 0)
(-0.0467792 -0.12557 0)
(-0.0114046 -0.0283309 0)
(-0.00659486 0.0270741 0)
(-0.0194776 0.0478294 0)
(-0.0323573 0.0650146 0)
(-0.0460854 0.0826611 0)
(-0.0590492 0.0986061 0)
(-0.0701717 0.109903 0)
(-0.0777617 0.114471 0)
(-0.0829625 0.113876 0)
(-0.0862902 0.10985 0)
(-0.0883162 0.103639 0)
(-0.0892357 0.0959279 0)
(-0.0893912 0.0873692 0)
(-0.0890572 0.0784639 0)
(-0.0884154 0.0695139 0)
(-0.087609 0.0607135 0)
(-0.0867311 0.0521706 0)
(-0.0858318 0.0439248 0)
(-0.0849293 0.0359716 0)
(-0.0840188 0.0282789 0)
(-0.0830821 0.0207976 0)
(-0.0820948 0.0134688 0)
(-0.0810347 0.00623287 0)
(-0.0798862 -0.000974592 0)
(-0.0786549 -0.00822511 0)
(-0.0773683 -0.0156027 0)
(-0.0760787 -0.0232119 0)
(-0.0748731 -0.0311924 0)
(-0.0738701 -0.0397344 0)
(-0.0732128 -0.049094 0)
(-0.073047 -0.0595969 0)
(-0.0734803 -0.0716185 0)
(-0.0745258 -0.0855212 0)
(-0.0760443 -0.10154 0)
(-0.0776847 -0.11963 0)
(-0.0786048 -0.139249 0)
(-0.0771723 -0.158534 0)
(-0.072033 -0.171286 0)
(-0.062182 -0.173188 0)
(-0.0444769 -0.151369 0)
(-0.0163352 -0.0696713 0)
(-0.00638772 0.0389791 0)
(-0.0189217 0.0613699 0)
(-0.031105 0.0782152 0)
(-0.0438148 0.0950764 0)
(-0.055433 0.109535 0)
(-0.0643783 0.118079 0)
(-0.0702936 0.120162 0)
(-0.0743459 0.117634 0)
(-0.0767958 0.112154 0)
(-0.0781658 0.104806 0)
(-0.078647 0.0962673 0)
(-0.0785746 0.087167 0)
(-0.0781658 0.0779286 0)
(-0.0775723 0.0687986 0)
(-0.0769062 0.0599222 0)
(-0.0762325 0.0513616 0)
(-0.075576 0.0431215 0)
(-0.0749338 0.0351711 0)
(-0.0742829 0.0274603 0)
(-0.0735897 0.0199321 0)
(-0.07282 0.0125273 0)
(-0.0719408 0.0051913 0)
(-0.0709292 -0.00212663 0)
(-0.0697808 -0.00948063 0)
(-0.068512 -0.0169275 0)
(-0.0671647 -0.0245418 0)
(-0.0658135 -0.032429 0)
(-0.064569 -0.040746 0)
(-0.0635762 -0.049726 0)
(-0.0630016 -0.059699 0)
(-0.0629992 -0.0710935 0)
(-0.0636494 -0.0843928 0)
(-0.06489 -0.100023 0)
(-0.0664638 -0.11818 0)
(-0.0677858 -0.138663 0)
(-0.0674778 -0.160311 0)
(-0.0634089 -0.178241 0)
(-0.056059 -0.184489 0)
(-0.0407185 -0.172078 0)
(-0.014296 -0.101437 0)
(-0.00582723 0.0502892 0)
(-0.017528 0.0741369 0)
(-0.0287176 0.0903945 0)
(-0.0401427 0.106128 0)
(-0.0502909 0.118802 0)
(-0.0572235 0.124623 0)
(-0.0621168 0.1247 0)
(-0.0652438 0.120541 0)
(-0.067115 0.113839 0)
(-0.0680919 0.105566 0)
(-0.0683839 0.0964011 0)
(-0.0682864 0.0869185 0)
(-0.0679697 0.0774702 0)
(-0.0675598 0.0682523 0)
(-0.06714 0.059363 0)
(-0.0667483 0.0508234 0)
(-0.0663882 0.0426059 0)
(-0.0660404 0.0346573 0)
(-0.0656699 0.026914 0)
(-0.0652342 0.0193138 0)
(-0.0646926 0.0117997 0)
(-0.0640082 0.0043238 0)
(-0.0631536 -0.00315219 0)
(-0.0621173 -0.0106638 0)
(-0.0609066 -0.0182459 0)
(-0.0595523 -0.0259447 0)
(-0.0581147 -0.0338324 0)
(-0.0566889 -0.0420289 0)
(-0.0554084 -0.0507327 0)
(-0.0544421 -0.0602563 0)
(-0.0539727 -0.0710532 0)
(-0.054142 -0.0837032 0)
(-0.054968 -0.098815 0)
(-0.0562675 -0.116821 0)
(-0.0576045 -0.137774 0)
(-0.0578797 -0.160966 0)
(-0.0549197 -0.183822 0)
(-0.0487683 -0.194561 0)
(-0.0359377 -0.189853 0)
(-0.0126852 -0.13046 0)
(-0.00501929 0.0605139 0)
(-0.0155675 0.0857956 0)
(-0.0255346 0.101337 0)
(-0.0356216 0.115801 0)
(-0.0441038 0.126358 0)
(-0.0495337 0.129977 0)
(-0.0536269 0.128347 0)
(-0.0560778 0.122844 0)
(-0.057575 0.115136 0)
(-0.0583452 0.106137 0)
(-0.0586079 0.0965104 0)
(-0.0586057 0.0867685 0)
(-0.0584739 0.0772015 0)
(-0.058312 0.0679588 0)
(-0.0581754 0.0590933 0)
(-0.0580801 0.0505893 0)
(-0.0580144 0.0423925 0)
(-0.0579481 0.0344323 0)
(-0.0578405 0.0266359 0)
(-0.0576458 0.018938 0)
(-0.0573208 0.0112855 0)
(-0.0568277 0.00363798 0)
(-0.0561369 -0.0040319 0)
(-0.0552322 -0.0117435 0)
(-0.0541139 -0.019512 0)
(-0.0528033 -0.0273592 0)
(-0.0513473 -0.0353269 0)
(-0.0498239 -0.0434995 0)
(-0.0483487 -0.0520357 0)
(-0.0470782 -0.0612139 0)
(-0.0462027 -0.0714813 0)
(-0.045908 -0.0834785 0)
(-0.0462915 -0.0979776 0)
(-0.047257 -0.115676 0)
(-0.0484611 -0.136901 0)
(-0.0490407 -0.161351 0)
(-0.0472867 -0.186962 0)
(-0.0416071 -0.20361 0)
(-0.0315992 -0.204267 0)
(-0.010603 -0.154246 0)
(-0.00411239 0.0694416 0)
(-0.0132571 0.0960918 0)
(-0.0218949 0.110892 0)
(-0.0305959 0.124041 0)
(-0.0373728 0.132422 0)
(-0.0417371 0.134385 0)
(-0.0451386 0.131315 0)
(-0.0470978 0.124722 0)
(-0.0483542 0.116207 0)
(-0.0490368 0.106653 0)
(-0.0493588 0.0966988 0)
(-0.0495105 0.0867912 0)
(-0.0495972 0.0771699 0)
(-0.0496915 0.0679396 0)
(-0.0498259 0.0591127 0)
(-0.0500007 0.0506432 0)
(-0.0501943 0.0424555 0)
(-0.0503718 0.0344664 0)
(-0.050491 0.0265973 0)
(-0.0505076 0.018782 0)
(-0.0503784 0.0109706 0)
(-0.0500661 0.00313022 0)
(-0.0495403 -0.00475695 0)
(-0.0487815 -0.0126967 0)
(-0.0477848 -0.020687 0)
(-0.0465634 -0.0287281 0)
(-0.045153 -0.0368357 0)
(-0.043617 -0.045062 0)
(-0.0420521 -0.0535273 0)
(-0.0405959 -0.062468 0)
(-0.03943 -0.0723018 0)
(-0.0387609 -0.083689 0)
(-0.0387503 -0.0975226 0)
(-0.0393934 -0.114749 0)
(-0.0404197 -0.136003 0)
(-0.0411628 -0.161352 0)
(-0.0401359 -0.189366 0)
(-0.0351133 -0.211633 0)
(-0.0278051 -0.2168 0)
(-0.0092639 -0.175306 0)
(-0.00308283 0.0766654 0)
(-0.010743 0.10486 0)
(-0.0179875 0.118987 0)
(-0.0252435 0.130786 0)
(-0.0304742 0.137301 0)
(-0.0341579 0.137998 0)
(-0.0368315 0.133743 0)
(-0.038436 0.12629 0)
(-0.0395262 0.117153 0)
(-0.040186 0.10719 0)
(-0.0406029 0.0970119 0)
(-0.0409202 0.0870081 0)
(-0.0412154 0.0773735 0)
(-0.0415375 0.068173 0)
(-0.0419014 0.0593856 0)
(-0.0422971 0.0509411 0)
(-0.042699 0.0427487 0)
(-0.0430718 0.0347159 0)
(-0.0433755 0.0267607 0)
(-0.0435692 0.018817 0)
(-0.0436123 0.0108369 0)
(-0.0434683 0.00279384 0)
(-0.043107 -0.00532178 0)
(-0.0425063 -0.0135045 0)
(-0.0416569 -0.0217372 0)
(-0.0405653 -0.030001 0)
(-0.0392584 -0.0382888 0)
(-0.037787 -0.0466246 0)
(-0.0362318 -0.0550936 0)
(-0.0347106 -0.0638898 0)
(-0.033387 -0.0733876 0)
(-0.0324687 -0.0842339 0)
(-0.0321622 -0.0974 0)
(-0.032555 -0.114057 0)
(-0.033462 -0.135153 0)
(-0.0343596 -0.161046 0)
(-0.0339257 -0.190659 0)
(-0.0302204 -0.217947 0)
(-0.0237238 -0.227716 0)
(-0.00798093 -0.192986 0)
(-0.00211536 0.0823968 0)
(-0.00812913 0.112057 0)
(-0.0139727 0.125609 0)
(-0.0198202 0.136183 0)
(-0.0237421 0.141199 0)
(-0.0267502 0.140868 0)
(-0.0288063 0.135716 0)
(-0.0301319 0.127618 0)
(-0.0310942 0.118022 0)
(-0.0317552 0.107775 0)
(-0.0322658 0.097454 0)
(-0.0327279 0.0874026 0)
(-0.0331944 0.0777782 0)
(-0.0336948 0.0686123 0)
(-0.0342317 0.059858 0)
(-0.0347899 0.0514273 0)
(-0.0353435 0.0432184 0)
(-0.0358603 0.0351331 0)
(-0.0363048 0.0270867 0)
(-0.0366406 0.0190128 0)
(-0.0368314 0.0108655 0)
(-0.0368425 0.00262167 0)
(-0.036644 -0.00572155 0)
(-0.0362122 -0.0141492 0)
(-0.035534 -0.0226314 0)
(-0.03461 -0.0311322 0)
(-0.0334592 -0.0396236 0)
(-0.0321224 -0.0481047 0)
(-0.0306672 -0.0566298 0)
(-0.0291938 -0.0653535 0)
(-0.0278455 -0.0746017 0)
(-0.026817 -0.0849814 0)
(-0.0263353 -0.0974903 0)
(-0.0265638 -0.113484 0)
(-0.0274175 -0.134278 0)
(-0.0284523 -0.16053 0)
(-0.0284466 -0.191511 0)
(-0.0258251 -0.22289 0)
(-0.0209653 -0.237105 0)
(-0.00702286 -0.208728 0)
(-0.00100799 0.0861973 0)
(-0.00547535 0.11758 0)
(-0.00997122 0.130828 0)
(-0.0144344 0.140296 0)
(-0.0172366 0.144183 0)
(-0.0195728 0.14308 0)
(-0.0210991 0.137294 0)
(-0.0221751 0.128744 0)
(-0.0230204 0.118834 0)
(-0.0236774 0.108403 0)
(-0.0242562 0.0980013 0)
(-0.0248226 0.0879354 0)
(-0.0254088 0.0783326 0)
(-0.0260286 0.069199 0)
(-0.026677 0.0604689 0)
(-0.0273374 0.0520423 0)
(-0.0279862 0.04381 0)
(-0.0285963 0.03567 0)
(-0.0291382 0.0275355 0)
(-0.029581 0.0193395 0)
(-0.0298936 0.0110365 0)
(-0.0300446 0.00260534 0)
(-0.0300052 -0.00595242 0)
(-0.0297512 -0.0146145 0)
(-0.029266 -0.0233401 0)
(-0.0285449 -0.0320782 0)
(-0.0275997 -0.0407818 0)
(-0.0264623 -0.049427 0)
(-0.0251887 -0.0580409 0)
(-0.0238646 -0.0667424 0)
(-0.0226145 -0.0758111 0)
(-0.0216148 -0.0858017 0)
(-0.0210952 -0.0976984 0)
(-0.021273 -0.112979 0)
(-0.0221657 -0.133297 0)
(-0.0233721 -0.159692 0)
(-0.0238618 -0.191878 0)
(-0.0222518 -0.226371 0)
(-0.018379 -0.245121 0)
(-0.00617148 -0.222407 0)
(-0.000132228 0.0886004 0)
(-0.00286814 0.121584 0)
(-0.00604703 0.134671 0)
(-0.00915302 0.143222 0)
(-0.0110064 0.146357 0)
(-0.0126487 0.144687 0)
(-0.0136997 0.1385 0)
(-0.0145289 0.129674 0)
(-0.0152476 0.119578 0)
(-0.0158757 0.109048 0)
(-0.0164821 0.0986134 0)
(-0.0171024 0.0885549 0)
(-0.0177509 0.078978 0)
(-0.0184296 0.0698714 0)
(-0.0191291 0.0611573 0)
(-0.0198335 0.0527282 0)
(-0.0205238 0.0444705 0)
(-0.0211787 0.0362799 0)
(-0.0217755 0.0280678 0)
(-0.02229 0.0197661 0)
(-0.022697 0.0113285 0)
(-0.0229699 0.00273414 0)
(-0.0230827 -0.00601319 0)
(-0.0230115 -0.0148863 0)
(-0.0227377 -0.0238357 0)
(-0.0222519 -0.0327979 0)
(-0.0215587 -0.0417084 0)
(-0.0206812 -0.050522 0)
(-0.0196646 -0.0592405 0)
(-0.0185811 -0.0679514 0)
(-0.0175377 -0.0768906 0)
(-0.0166908 -0.0865559 0)
(-0.0162595 -0.0978893 0)
(-0.0164926 -0.112439 0)
(-0.017497 -0.132155 0)
(-0.0189461 -0.158517 0)
(-0.0199633 -0.191737 0)
(-0.0192717 -0.228811 0)
(-0.0165381 -0.251977 0)
(-0.00551147 -0.23476 0)
(0.00107618 0.0888393 0)
(-0.000285482 0.124004 0)
(-0.00217302 0.137164 0)
(-0.00401254 0.145064 0)
(-0.00503449 0.147752 0)
(-0.00597753 0.145718 0)
(-0.00657768 0.139353 0)
(-0.00714407 0.130405 0)
(-0.00771181 0.120232 0)
(-0.00827361 0.109672 0)
(-0.00885976 0.0992415 0)
(-0.00948018 0.0892053 0)
(-0.0101338 0.0796552 0)
(-0.0108136 0.07057 0)
(-0.0115077 0.0618656 0)
(-0.0122029 0.0534307 0)
(-0.0128851 0.0451503 0)
(-0.0135395 0.0369183 0)
(-0.0141508 0.028645 0)
(-0.014702 0.0202607 0)
(-0.015175 0.0117179 0)
(-0.0155492 0.00299397 0)
(-0.015803 -0.00590679 0)
(-0.0159148 -0.0149546 0)
(-0.0158656 -0.0240948 0)
(-0.0156424 -0.0332535 0)
(-0.0152432 -0.0423513 0)
(-0.0146818 -0.0513236 0)
(-0.0139925 -0.060149 0)
(-0.0132339 -0.068886 0)
(-0.0124964 -0.0777312 0)
(-0.011916 -0.0871258 0)
(-0.0116946 -0.0979505 0)
(-0.0120932 -0.111773 0)
(-0.013289 -0.130795 0)
(-0.0150394 -0.156952 0)
(-0.0166159 -0.190923 0)
(-0.0167475 -0.230283 0)
(-0.014932 -0.257779 0)
(-0.00494094 -0.245787 0)
(0.00186814 0.0877055 0)
(0.00216105 0.124913 0)
(0.00158865 0.138388 0)
(0.000933594 0.14593 0)
(0.000717093 0.148413 0)
(0.000474916 0.146191 0)
(0.000317522 0.139813 0)
(3.02963e-05 0.130897 0)
(-0.000354058 0.120752 0)
(-0.000805067 0.110227 0)
(-0.00131931 0.0998334 0)
(-0.0018863 0.0898315 0)
(-0.00249086 0.0803083 0)
(-0.0031186 0.0712399 0)
(-0.00375692 0.0625412 0)
(-0.0043954 0.0541009 0)
(-0.00502523 0.0458039 0)
(-0.00563847 0.0375438 0)
(-0.0062271 0.0292301 0)
(-0.00678207 0.0207917 0)
(-0.00729278 0.0121791 0)
(-0.00774613 0.00336743 0)
(-0.00812635 -0.00564085 0)
(-0.00841638 -0.0148155 0)
(-0.00859866 -0.0240997 0)
(-0.00865826 -0.033413 0)
(-0.00858764 -0.042664 0)
(-0.00839196 -0.0517712 0)
(-0.00809366 -0.060692 0)
(-0.00773713 -0.0694585 0)
(-0.00739559 -0.0782311 0)
(-0.00718445 -0.0873968 0)
(-0.00728404 -0.0977658 0)
(-0.00795341 -0.11088 0)
(-0.00942333 -0.129136 0)
(-0.0115359 -0.154976 0)
(-0.0136959 -0.189534 0)
(-0.0146117 -0.230892 0)
(-0.0137595 -0.26272 0)
(-0.00448936 -0.255924 0)
(0.00271273 0.0849949 0)
(0.00456128 0.124358 0)
(0.00523616 0.138432 0)
(0.00567818 0.145867 0)
(0.00627637 0.148267 0)
(0.00670642 0.146113 0)
(0.00700538 0.139922 0)
(0.00703653 0.131129 0)
(0.0068809 0.121099 0)
(0.00658972 0.110665 0)
(0.00619627 0.100338 0)
(0.00573284 0.090381 0)
(0.0052271 0.0808858 0)
(0.00469866 0.0718322 0)
(0.00416044 0.0631383 0)
(0.00361983 0.0546958 0)
(0.00308039 0.0463915 0)
(0.00254348 0.0381197 0)
(0.00200971 0.0297899 0)
(0.0014802 0.0213295 0)
(0.000957516 0.0126871 0)
(0.000446694 0.00383507 0)
(-4.39826e-05 -0.00522716 0)
(-0.000503466 -0.0144712 0)
(-0.000917659 -0.023841 0)
(-0.00127202 -0.0332535 0)
(-0.00155543 -0.0426087 0)
(-0.0017653 -0.0518122 0)
(-0.00191256 -0.060803 0)
(-0.00202661 -0.0695894 0)
(-0.00216223 -0.078299 0)
(-0.00241302 -0.0872673 0)
(-0.0029346 -0.0972302 0)
(-0.00397472 -0.109672 0)
(-0.00580108 -0.127121 0)
(-0.00834764 -0.152521 0)
(-0.0110849 -0.187512 0)
(-0.0127098 -0.230625 0)
(-0.0127643 -0.266876 0)
(-0.00408611 -0.26519 0)
(0.00358239 0.0805466 0)
(0.00692013 0.12234 0)
(0.00876877 0.13733 0)
(0.0102262 0.144902 0)
(0.011628 0.147382 0)
(0.0127268 0.145457 0)
(0.0135158 0.139628 0)
(0.0139079 0.13107 0)
(0.0140262 0.121235 0)
(0.0139458 0.110941 0)
(0.0137246 0.100705 0)
(0.0134142 0.0908053 0)
(0.0130535 0.0813419 0)
(0.0126667 0.0723039 0)
(0.0122671 0.0636172 0)
(0.0118593 0.0551789 0)
(0.011442 0.0468794 0)
(0.0110103 0.0386151 0)
(0.0105576 0.0302958 0)
(0.0100775 0.0218483 0)
(0.00956435 0.0132193 0)
(0.00901488 0.00437836 0)
(0.00842886 -0.00467886 0)
(0.00781058 -0.0139276 0)
(0.00716876 -0.0233156 0)
(0.00651512 -0.0327605 0)
(0.00586214 -0.0421583 0)
(0.00521844 -0.0514053 0)
(0.00458319 -0.0604265 0)
(0.00394181 -0.0692104 0)
(0.00325889 -0.0778548 0)
(0.00246545 -0.0866461 0)
(0.00143128 -0.0962443 0)
(-7.01424e-05 -0.108059 0)
(-0.00233243 -0.124688 0)
(-0.00538031 -0.149553 0)
(-0.00872987 -0.184875 0)
(-0.0109796 -0.229503 0)
(-0.0120128 -0.270412 0)
(-0.00374139 -0.273861 0)
(0.00438171 0.0746371 0)
(0.00918289 0.118913 0)
(0.0121767 0.135123 0)
(0.0145902 0.143061 0)
(0.0168502 0.145739 0)
(0.018464 0.144219 0)
(0.0198217 0.138903 0)
(0.020648 0.130675 0)
(0.0210939 0.121105 0)
(0.0212804 0.110999 0)
(0.0212863 0.100885 0)
(0.0211792 0.0910577 0)
(0.0210081 0.081634 0)
(0.0208022 0.072617 0)
(0.0205754 0.0639439 0)
(0.0203303 0.0555198 0)
(0.0200611 0.0472405 0)
(0.0197575 0.0390056 0)
(0.0194065 0.030726 0)
(0.0189939 0.0223284 0)
(0.0185066 0.013758 0)
(0.0179331 0.0049816 0)
(0.0172646 -0.00400905 0)
(0.0164981 -0.0131942 0)
(0.0156359 -0.0225264 0)
(0.0146844 -0.0319281 0)
(0.0136551 -0.0412955 0)
(0.0125603 -0.0505205 0)
(0.0114069 -0.0595186 0)
(0.0101939 -0.068263 0)
(0.00890509 -0.0768274 0)
(0.00749738 -0.0854542 0)
(0.00587051 -0.0947236 0)
(0.00382482 -0.105955 0)
(0.00105245 -0.121771 0)
(-0.00254993 -0.146021 0)
(-0.00656023 -0.181597 0)
(-0.00934095 -0.227707 0)
(-0.0116112 -0.273071 0)
(-0.00315554 -0.282053 0)
(0.00505994 0.0673315 0)
(0.0112907 0.114122 0)
(0.0153994 0.131854 0)
(0.018734 0.140383 0)
(0.0216927 0.14351 0)
(0.0240508 0.142327 0)
(0.0259197 0.137627 0)
(0.027248 0.129875 0)
(0.0280846 0.120648 0)
(0.0285962 0.110782 0)
(0.0288867 0.100825 0)
(0.0290354 0.0910909 0)
(0.0290991 0.0817211 0)
(0.0291123 0.0727365 0)
(0.0290903 0.0640884 0)
(0.0290342 0.055693 0)
(0.0289353 0.047453 0)
(0.0287781 0.0392723 0)
(0.0285439 0.0310639 0)
(0.0282121 0.0227548 0)
(0.0277622 0.0142894 0)
(0.0271753 0.00563227 0)
(0.026434 -0.00322889 0)
(0.025528 -0.0122805 0)
(0.024453 -0.0214812 0)
(0.0232085 -0.0307591 0)
(0.0218026 -0.0400152 0)
(0.0202476 -0.0491415 0)
(0.0185559 -0.0580495 0)
(0.016738 -0.0667031 0)
(0.0147967 -0.0751571 0)
(0.0127124 -0.0836177 0)
(0.0104258 -0.0925908 0)
(0.00776 -0.103284 0)
(0.00440645 -0.118305 0)
(0.000203766 -0.141881 0)
(-0.00452152 -0.177651 0)
(-0.00774173 -0.225296 0)
(-0.0112619 -0.275008 0)
(-0.00272576 -0.289898 0)
(0.00555491 0.058738 0)
(0.0131619 0.108009 0)
(0.0183533 0.12755 0)
(0.0225833 0.136889 0)
(0.0262433 0.140555 0)
(0.0293131 0.139876 0)
(0.0317536 0.135771 0)
(0.0336464 0.128603 0)
(0.0349572 0.119798 0)
(0.0358709 0.110227 0)
(0.0365126 0.100466 0)
(0.0369749 0.0908553 0)
(0.0373227 0.0815614 0)
(0.0375954 0.0726274 0)
(0.0378108 0.0640226 0)
(0.0379695 0.0556758 0)
(0.0380604 0.0474986 0)
(0.0380649 0.0394003 0)
(0.0379593 0.031297 0)
(0.0377175 0.023117 0)
(0.0373127 0.0148044 0)
(0.0367192 0.0063219 0)
(0.0359122 -0.00234645 0)
(0.0348737 -0.011194 0)
(0.0335925 -0.0201857 0)
(0.0320602 -0.0292564 0)
(0.0302787 -0.0383145 0)
(0.0282589 -0.0472573 0)
(0.0260164 -0.0559977 0)
(0.0235711 -0.0644977 0)
(0.0209422 -0.0728011 0)
(0.0181375 -0.0810803 0)
(0.01513 -0.0897735 0)
(0.0117766 -0.0999733 0)
(0.00777981 -0.114224 0)
(0.00293006 -0.137085 0)
(-0.00258713 -0.173005 0)
(-0.00620425 -0.222256 0)
(-0.0111225 -0.276072 0)
(-0.00201497 -0.297414 0)
(0.00577559 0.0490737 0)
(0.0146841 0.100636 0)
(0.0209084 0.122232 0)
(0.0260193 0.132589 0)
(0.0304003 0.136877 0)
(0.0341435 0.136805 0)
(0.0372628 0.133281 0)
(0.0397679 0.126775 0)
(0.0416387 0.118471 0)
(0.0430468 0.109259 0)
(0.0441234 0.099743 0)
(0.0449703 0.0902949 0)
(0.0456604 0.0811084 0)
(0.0462396 0.0722527 0)
(0.0467287 0.0637173 0)
(0.0471298 0.0554459 0)
(0.0474314 0.0473606 0)
(0.0476126 0.0393774 0)
(0.0476461 0.0314167 0)
(0.0475016 0.0234088 0)
(0.0471471 0.0152981 0)
(0.0465515 0.0070455 0)
(0.0456826 -0.00136724 0)
(0.0445156 -0.00994036 0)
(0.0430323 -0.0186446 0)
(0.0412158 -0.0274224 0)
(0.0390609 -0.0361923 0)
(0.0365754 -0.0448612 0)
(0.0337762 -0.0533491 0)
(0.0306906 -0.0616223 0)
(0.0273506 -0.069722 0)
(0.0237851 -0.0777986 0)
(0.0200044 -0.0862208 0)
(0.0159124 -0.0959655 0)
(0.0112225 -0.109473 0)
(0.00568305 -0.131577 0)
(-0.000711171 -0.167601 0)
(-0.00475997 -0.218584 0)
(-0.0110594 -0.276482 0)
(-0.00116901 -0.304759 0)
(0.0055682 0.0386914 0)
(0.0156666 0.092098 0)
(0.0228849 0.115911 0)
(0.0288791 0.127471 0)
(0.0340141 0.132486 0)
(0.0384665 0.133027 0)
(0.0423011 0.130126 0)
(0.0455014 0.124309 0)
(0.048032 0.116567 0)
(0.0500343 0.107779 0)
(0.0516442 0.0985696 0)
(0.0529642 0.0893369 0)
(0.0540708 0.0803044 0)
(0.0550151 0.0715678 0)
(0.0558236 0.0631388 0)
(0.0565017 0.0549783 0)
(0.0570391 0.0470211 0)
(0.0574141 0.0391916 0)
(0.0575984 0.0314151 0)
(0.0575585 0.023625 0)
(0.0572588 0.0157665 0)
(0.0566635 0.00779976 0)
(0.0557345 -0.000296491 0)
(0.0544405 -0.0085234 0)
(0.0527567 -0.0168612 0)
(0.0506576 -0.0252602 0)
(0.0481308 -0.0336508 0)
(0.0451796 -0.0419526 0)
(0.0418209 -0.050098 0)
(0.0380874 -0.0580629 0)
(0.0340214 -0.0658925 0)
(0.0296676 -0.0737263 0)
(0.0250724 -0.0818797 0)
(0.0201834 -0.0912061 0)
(0.0147588 -0.104024 0)
(0.0085054 -0.125374 0)
(0.00116164 -0.161469 0)
(-0.00326453 -0.214249 0)
(-0.0110788 -0.276383 0)
(-8.72465e-05 -0.311959 0)
(0.00473471 0.0282159 0)
(0.0158744 0.0824966 0)
(0.0240761 0.108556 0)
(0.030975 0.121495 0)
(0.0369139 0.127345 0)
(0.0421242 0.128512 0)
(0.0467239 0.126233 0)
(0.0507059 0.121107 0)
(0.0540118 0.113984 0)
(0.0567278 0.105686 0)
(0.0589796 0.0968473 0)
(0.0608721 0.087894 0)
(0.0624833 0.0790754 0)
(0.063867 0.070513 0)
(0.065054 0.0622413 0)
(0.0660538 0.0542398 0)
(0.0668593 0.0464568 0)
(0.0674511 0.0388268 0)
(0.0678014 0.0312821 0)
(0.0678755 0.0237598 0)
(0.0676353 0.0162073 0)
(0.0670411 0.00858502 0)
(0.0660542 0.000869977 0)
(0.0646356 -0.00694133 0)
(0.0627493 -0.0148349 0)
(0.0603666 -0.0227699 0)
(0.0574685 -0.0306896 0)
(0.0540526 -0.03853 0)
(0.0501352 -0.0462404 0)
(0.0457523 -0.0538112 0)
(0.0409538 -0.0612968 0)
(0.0357965 -0.0688354 0)
(0.0303496 -0.0767048 0)
(0.0246169 -0.0856441 0)
(0.018422 -0.0978339 0)
(0.0114076 -0.118455 0)
(0.00310072 -0.154602 0)
(-0.00152043 -0.209051 0)
(-0.0113702 -0.274965 0)
(0.0010549 -0.318945 0)
(0.00313957 0.0185747 0)
(0.0150433 0.0721216 0)
(0.0242574 0.10017 0)
(0.0320854 0.114618 0)
(0.0388948 0.1214 0)
(0.044915 0.123202 0)
(0.0503395 0.121513 0)
(0.055196 0.117057 0)
(0.059397 0.11059 0)
(0.0629694 0.102855 0)
(0.0659982 0.0944675 0)
(0.0685817 0.0858695 0)
(0.0708 0.0773374 0)
(0.07271 0.0690183 0)
(0.0743465 0.0609688 0)
(0.0757242 0.0531871 0)
(0.0768408 0.0456362 0)
(0.077681 0.0382617 0)
(0.0782188 0.0310037 0)
(0.0784207 0.0238051 0)
(0.0782483 0.0166167 0)
(0.0776605 0.00940034 0)
(0.0766146 0.00213344 0)