/*--------------------------------*- C++ -*----------------------------------*\
  =========                 |
  \\      /  F ield         | OpenFOAM: The Open Source CFD Toolbox
   \\    /   O peration     | Website:  https://openfoam.org
    \\  /    A nd           | Version:  12
     \\/     M anipulation  |
\*---------------------------------------------------------------------------*/
FoamFile
{
    format      ascii;
    class       volScalarField;
    location    "7.5";
    object      epsilon;
}
// * * * * * * * * * * * * * * * * * * * * * * * * * * * * * * * * * * * * * //

dimensions      [0 2 -3 0 0 0 0];

internalField   nonuniform List<scalar> 
1600
(
2.6987e-05
9.19734e-05
0.000178908
0.000178981
0.00016428
0.000168187
0.000216754
0.000368246
0.000554614
0.000792524
0.00123486
0.00154903
0.00170803
0.00189416
0.00218812
0.0025681
0.00292337
0.0033295
0.0037232
0.00417226
0.00463381
0.00516071
0.00573292
0.00639929
0.00717711
0.00786788
0.00857546
0.00917698
0.00970042
0.0099838
0.0100966
0.00989686
0.00908961
0.00771509
0.00579418
0.00342153
0.00165631
0.000692273
0.000219644
4.545e-05
0.000130491
0.000164277
0.000202137
0.000193444
0.000186898
0.000222996
0.0003897
0.000838212
0.00150906
0.00247998
0.00437834
0.00529992
0.0053956
0.00505933
0.00473232
0.00458105
0.00445633
0.00441548
0.00440855
0.00450227
0.00463445
0.00483957
0.0050617
0.00534333
0.00568393
0.006102
0.00656964
0.00711005
0.0076488
0.00811047
0.00832453
0.00836404
0.00781818
0.00677739
0.00504103
0.00291003
0.00121304
0.000526054
0.000189225
7.67908e-05
0.000394795
0.000419654
0.000426012
0.000404341
0.000454449
0.000753521
0.00164731
0.00339539
0.0055154
0.00640212
0.00628186
0.00534788
0.00489579
0.00430971
0.0039159
0.00361712
0.0033836
0.00323075
0.0031402
0.00310127
0.0030905
0.00312607
0.0032287
0.00337136
0.00355574
0.00377963
0.00404961
0.00437321
0.00475432
0.00521355
0.00574394
0.00624415
0.00647831
0.00644016
0.00560891
0.00380298
0.00122015
0.000332389
0.000118466
6.29853e-05
0.000908993
0.000821175
0.000812244
0.000865864
0.00125995
0.00245628
0.0046775
0.00630282
0.00669643
0.00608751
0.00525455
0.00409504
0.00344708
0.00294245
0.00269265
0.00246022
0.00234361
0.00226951
0.00223912
0.00223226
0.00226172
0.00231736
0.00239516
0.00249482
0.00261675
0.00276466
0.00294356
0.003159
0.00341677
0.00372315
0.00408154
0.00450584
0.00506343
0.00564869
0.00588381
0.00543476
0.00279469
0.000478839
9.82553e-05
4.41093e-05
0.0017197
0.00139912
0.00147706
0.00185206
0.00295419
0.00492444
0.00624012
0.00650986
0.00597404
0.0045367
0.00339509
0.00279916
0.00239175
0.00213196
0.00198772
0.00189492
0.00185668
0.00184465
0.00185351
0.00188864
0.00193259
0.0019889
0.00205476
0.00213457
0.00223038
0.00234816
0.00249415
0.0026751
0.00289377
0.00315284
0.00345312
0.00379356
0.00418998
0.00471141
0.00548965
0.00585227
0.00524252
0.00151066
0.000188942
5.19662e-05
0.00287977
0.00221881
0.00250034
0.00327437
0.00475893
0.00590802
0.00618816
0.00575764
0.00413277
0.00296859
0.00239154
0.00203961
0.00181536
0.00170178
0.00164712
0.00162593
0.00162271
0.00164081
0.00166733
0.00170243
0.00174247
0.00179143
0.0018505
0.00192387
0.00201482
0.00212883
0.00227086
0.00244628
0.00265964
0.00291333
0.00320639
0.00354149
0.00389746
0.00429241
0.00478991
0.00546374
0.00575076
0.00403632
0.000581227
9.94453e-05
0.00435137
0.00327256
0.00372666
0.0046389
0.00556685
0.00584983
0.00554633
0.00403082
0.00274392
0.00213465
0.00181667
0.00161749
0.00151978
0.00147497
0.001457
0.0014519
0.00145249
0.00146258
0.00147299
0.00148958
0.00151187
0.00154574
0.0015933
0.00165987
0.00174977
0.0018692
0.00202401
0.0022204
0.00246299
0.00275278
0.0030839
0.00344224
0.00381938
0.00420069
0.00458781
0.00506141
0.00542252
0.00531841
0.00147876
0.000225959
0.0059279
0.00442694
0.00485471
0.00541134
0.00562577
0.0053937
0.00414108
0.00269784
0.00200377
0.00166952
0.00148723
0.00138709
0.00133928
0.0013147
0.00129635
0.00127995
0.00126351
0.00124891
0.00123806
0.0012338
0.00123458
0.00125315
0.00128735
0.00134332
0.00142578
0.00154126
0.00169771
0.00190437
0.00217074
0.0025035
0.00290072
0.00334399
0.0037952
0.00421934
0.00457766
0.00496056
0.00534223
0.00547762
0.00323435
0.000567934
0.007291
0.00548507
0.00568153
0.00575545
0.00538719
0.00439328
0.0028652
0.00198786
0.00158917
0.00139532
0.00128862
0.0012317
0.00119693
0.00116475
0.00113016
0.00109324
0.00105566
0.00102094
0.000991858
0.000974444
0.000967634
0.000969812
0.000995471
0.00103984
0.00111073
0.00121348
0.00135734
0.00155404
0.00181848
0.00216672
0.00261047
0.0031451
0.00373227
0.0042911
0.0047672
0.00503902
0.00537249
0.00555027
0.00489417
0.00153106
0.00828851
0.00626855
0.00617048
0.00570252
0.00479717
0.00330555
0.00211798
0.00158473
0.00133962
0.00121918
0.00114901
0.00110336
0.0010603
0.00101189
0.000959502
0.000905923
0.000854829
0.000809855
0.000773516
0.000749599
0.000738664
0.000736256
0.000752976
0.000788437
0.00084633
0.000932686
0.00105604
0.00122899
0.00146919
0.00179983
0.00224707
0.00283033
0.00353968
0.00430243
0.00497797
0.00534563
0.00555889
0.00568902
0.00545639
0.00271725
0.00900363
0.00677684
0.00638864
0.00547656
0.00400412
0.00247484
0.00168706
0.00133751
0.00117425
0.0010916
0.00103317
0.000982503
0.000925477
0.000862751
0.000798419
0.000736531
0.000680828
0.000633883
0.000597116
0.000572333
0.000560529
0.000557107
0.000567826
0.000596061
0.000642463
0.000712961
0.000814983
0.000960461
0.00116725
0.00146148
0.00187846
0.00245823
0.00322714
0.00415404
0.00508434
0.00566256
0.00590514
0.00599518
0.00582792
0.00386274
0.00939571
0.00700389
0.00633361
0.00501726
0.00325162
0.00197622
0.00141834
0.00117146
0.00105437
0.000987105
0.000927823
0.000867105
0.000798458
0.000727159
0.000657972
0.000594867
0.000540529
0.000496212
0.000462277
0.000439257
0.000428103
0.000424561
0.000431625
0.000453961
0.000491063
0.00054802
0.000631181
0.000751038
0.000924135
0.00117652
0.00154769
0.00209209
0.00286949
0.00390695
0.00511512
0.00599633
0.00629923
0.00635705
0.00617849
0.00478864
0.00938444
0.00698803
0.00616171
0.00449949
0.00264497
0.0016573
0.00123761
0.00105051
0.000959248
0.00089548
0.00083071
0.000760933
0.000685454
0.000611165
0.000542415
0.000482276
0.000432134
0.000392174
0.000362023
0.000341449
0.000331351
0.000327978
0.000332732
0.00035043
0.000380326
0.000426515
0.000494348
0.000592667
0.000735887
0.000947854
0.00126763
0.00175598
0.00249562
0.00356727
0.00497605
0.00630788
0.00680319
0.00685525
0.00648949
0.00565832
0.00926737
0.00688151
0.00583441
0.00397329
0.00223204
0.00144114
0.00110766
0.000956896
0.000879513
0.000813891
0.000743355
0.00066763
0.000589694
0.000516312
0.000450945
0.000395519
0.000350346
0.000314901
0.000288391
0.000270161
0.000261103
0.000257975
0.000261222
0.000275359
0.000299777
0.000337711
0.000393671
0.000475041
0.000594078
0.000771769
0.00104457
0.00147446
0.00215769
0.00321235
0.00469989
0.00645737
0.00732705
0.00742809
0.00694722
0.00646256
0.00898702
0.00664238
0.00544871
0.00351476
0.00195127
0.00128693
0.00100918
0.000882582
0.000811154
0.000742299
0.000667466
0.000588918
0.000511541
0.000441192
0.000380356
0.000329922
0.000289462
0.000258039
0.000234655
0.000218491
0.000210298
0.000207407
0.000209655
0.000221057
0.000241281
0.000272901
0.000319743
0.000387983
0.00048789
0.000637335
0.000868674
0.00124115
0.00185845
0.00287666
0.00444679
0.00649732
0.00786866
0.00807606
0.00745173
0.00724976
0.00849919
0.00634834
0.00505567
0.00314617
0.00175171
0.0011735
0.000932961
0.000822275
0.000752775
0.000681094
0.000603776
0.000524748
0.000449608
0.000383115
0.000326884
0.000281018
0.000244628
0.000216562
0.000195739
0.000181309
0.000173798
0.000171109
0.000172692
0.000181978
0.000198947
0.000225702
0.000265558
0.000323798
0.000409123
0.000536679
0.000734435
0.00105609
0.00160359
0.00255201
0.00412791
0.00642358
0.00837355
0.00880603
0.00805176
0.00801449
0.00793833
0.00602575
0.00468125
0.00285991
0.00160718
0.00108849
0.000873292
0.000772977
0.000703733
0.00063027
0.00055203
0.000473987
0.000401783
0.00033918
0.000287106
0.000245121
0.000212077
0.000186721
0.00016795
0.000154913
0.000147922
0.000145385
0.000146526
0.000154164
0.000168559
0.000191494
0.000225889
0.000276379
0.000350473
0.0004611
0.000632243
0.000911552
0.00139588
0.00227024
0.00381719
0.00625215
0.00882326
0.00960114
0.00869654
0.00877515
0.00727048
0.00572056
0.0043484
0.00264438
0.00150336
0.00102545
0.000826826
0.000733008
0.00066356
0.000589363
0.000511346
0.000435075
0.000365902
0.000306804
0.000258227
0.000219389
0.000189004
0.000165779
0.000148615
0.000136669
0.00013004
0.000127587
0.000128429
0.000134787
0.000147137
0.000167041
0.000197119
0.000241546
0.000306977
0.000404669
0.00055522
0.000800083
0.00122776
0.00202339
0.00351371
0.00603858
0.00918556
0.0104414
0.00946287
0.00953025
0.00661718
0.00542283
0.0040605
0.00248778
0.00143173
0.000978458
0.000790896
0.0007009
0.000631432
0.000557512
0.000480566
0.000406362
0.000339969
0.000283835
0.000238074
0.000201698
0.000173358
0.000151761
0.000135822
0.00012471
0.000118294
0.000115838
0.000116449
0.000121817
0.000132549
0.00015005
0.000176679
0.000216289
0.000274918
0.000362656
0.000497476
0.000715421
0.00109595
0.00181804
0.00323766
0.00581311
0.009458
0.0113108
0.0103054
0.0102806
0.00585321
0.00515752
0.00382562
0.00237864
0.00138588
0.000947929
0.000764202
0.000675968
0.000606799
0.00053384
0.000458416
0.000386432
0.000322539
0.000268776
0.000225118
0.000190529
0.000163673
0.000143266
0.000128228
0.000117729
0.000111425
0.000108882
0.000109418
0.000114074
0.000123463
0.000138915
0.000162787
0.000198565
0.000251795
0.000331814
0.000454651
0.000651791
0.000993446
0.00164786
0.00298808
0.00560113
0.00962408
0.0122097
0.0112647
0.0110305
0.00523297
0.00493208
0.0036378
0.00230914
0.00136709
0.000926519
0.000745581
0.000656877
0.000588273
0.000517082
0.000443922
0.000373957
0.000311881
0.000259851
0.000217794
0.000184644
0.000158992
0.000139466
0.000125019
0.000114874
0.000108571
0.000105832
0.000106478
0.000110646
0.00011915
0.000133234
0.000154847
0.000187204
0.000235896
0.000309891
0.00042365
0.000605193
0.000916217
0.00151148
0.00276632
0.0053688
0.00974069
0.0131186
0.0123366
0.0117714
0.00470491
0.00472383
0.00351787
0.00227271
0.00137356
0.000927501
0.000733728
0.000643809
0.000575869
0.000506742
0.000435402
0.000367946
0.00030838
0.000258149
0.000217276
0.000184756
0.000159336
0.000139944
0.000125562
0.000115416
0.000108989
0.000105988
0.000106396
0.000109976
0.000117881
0.00013121
0.000151477
0.000181715
0.000227069
0.000295785
0.000402323
0.000572415
0.000859905
0.00140522
0.00257704
0.00514362
0.00979465
0.0140406
0.013529
0.0125102
0.00423689
0.00455
0.00344237
0.00227784
0.00139609
0.000937045
0.00073428
0.000634994
0.00056728
0.000500737
0.000433696
0.000368646
0.00030996
0.000260228
0.000219636
0.000187326
0.000162107
0.000142828
0.000128508
0.000118388
0.000111958
0.000108986
0.000109318
0.000112333
0.000119404
0.000131705
0.000150881
0.000179945
0.00022349
0.000289001
0.000390811
0.000552495
0.000821598
0.00132621
0.00241917
0.00492662
0.00981391
0.0149918
0.0148263
0.0132336
0.00381091
0.00441327
0.00342478
0.00230332
0.00144412
0.000960483
0.000740274
0.000635151
0.000564685
0.000500863
0.00043552
0.00037221
0.000314876
0.000265947
0.00022578
0.000193679
0.000168564
0.000149292
0.000134911
0.00012468
0.000118085
0.00011491
0.000115206
0.000117926
0.000124527
0.000136335
0.000154558
0.000181894
0.000223129
0.000286838
0.000386225
0.000543315
0.000802131
0.00127179
0.00229471
0.004724
0.00980806
0.0159458
0.0162399
0.0139464
0.00341196
0.00430739
0.00343914
0.00236222
0.0015186
0.00100712
0.000756063
0.000639002
0.000566099
0.000503016
0.000440437
0.000380057
0.000324821
0.00027682
0.000236855
0.000204595
0.000179159
0.000159529
0.000144799
0.000134244
0.000127351
0.000123922
0.000124206
0.000126786
0.000133134
0.000144736
0.000162593
0.000189272
0.000229193
0.000290109
0.000385937
0.000540751
0.000794852
0.00124246
0.00220195
0.00454455
0.00976272
0.0168974
0.0177743
0.0146347
0.0030338
0.0042313
0.00348075
0.00245614
0.00161894
0.00107632
0.000788493
0.000649971
0.000570978
0.00050831
0.000449185
0.000391744
0.000338476
0.000291493
0.000251799
0.00021935
0.000193506
0.000173408
0.000158229
0.000147285
0.000140069
0.000136386
0.000136689
0.000139246
0.000145534
0.000157159
0.000174972
0.00020143
0.000240836
0.000300986
0.000395727
0.000548026
0.000795731
0.00123129
0.00213827
0.00439402
0.00971414
0.0178262
0.0194371
0.0153006
0.00266483
0.00416749
0.00355737
0.00258236
0.00175119
0.00117291
0.000841457
0.000673066
0.000581707
0.000517553
0.000460549
0.000406081
0.000355142
0.000309535
0.00027038
0.000237907
0.000211732
0.000191186
0.00017556
0.000164236
0.00015673
0.000152851
0.00015321
0.000155852
0.000162271
0.000174138
0.000192206
0.000218874
0.000258365
0.000318447
0.000413176
0.000566565
0.000815353
0.0012336
0.0021074
0.00427155
0.00968177
0.0187487
0.0212015
0.0159306
0.00230411
0.00411113
0.00366045
0.00272466
0.0019099
0.00130073
0.000921219
0.000714787
0.000603186
0.000532029
0.000474886
0.00042272
0.000374238
0.000330409
0.000292232
0.000260104
0.000233874
0.000213078
0.000197148
0.000185563
0.000177872
0.000173951
0.000174426
0.000177269
0.000184019
0.000196334
0.000214933
0.000242214
0.000282405
0.000343368
0.000439331
0.000594979
0.000847127
0.00126136
0.00209818
0.00416769
0.00959944
0.0196607
0.0230513
0.0165294
0.0019397
0.0040152
0.00373689
0.00291148
0.00209774
0.00146151
0.00103253
0.000780307
0.000639677
0.000554943
0.000493799
0.000442153
0.00039563
0.000353738
0.000316962
0.000285657
0.000259814
0.000239141
0.000223212
0.000211629
0.000203951
0.000200269
0.000200943
0.000204126
0.000211431
0.000224396
0.000243791
0.00027209
0.000313605
0.000376446
0.000475006
0.000634812
0.000893291
0.0013097
0.00211429
0.00410609
0.00951653
0.0205342
0.0249294
0.0170829
0.00161215
0.00389006
0.00377384
0.0031163
0.00231166
0.00165927
0.00118481
0.000880738
0.000700655
0.000592937
0.000521284
0.000466387
0.000420036
0.000379515
0.000344237
0.000314159
0.000289205
0.000269156
0.000253675
0.000242508
0.000235128
0.000232112
0.000233099
0.000236796
0.000244925
0.000258763
0.000279241
0.000309015
0.00035256
0.000418426
0.000521096
0.000686997
0.000954158
0.00138047
0.00216419
0.00408096
0.00942311
0.0213168
0.0267589
0.0176031
0.00133536
0.00363335
0.00380797
0.00331538
0.00253194
0.00188207
0.00137756
0.00102459
0.000798054
0.000657128
0.000565977
0.000501425
0.000451255
0.000409916
0.000375138
0.000346007
0.000322058
0.000302955
0.000288288
0.000277983
0.000271173
0.00026934
0.000270777
0.000275198
0.000284479
0.000299483
0.000321425
0.000353301
0.000399776
0.000470117
0.000578697
0.000753205
0.00103157
0.00147468
0.0022452
0.00408094
0.00935612
0.0220141
0.0284468
0.0180825
0.00108787
0.00311557
0.00385947
0.00350516
0.0027656
0.00212858
0.00161254
0.00122184
0.000947236
0.000763657
0.000641784
0.000557974
0.000496971
0.000450156
0.000413026
0.000383249
0.000359505
0.000341077
0.000327173
0.00031794
0.000311814
0.000311566
0.000313584
0.000318961
0.000329775
0.000346391
0.000370396
0.000405367
0.00045607
0.000532946
0.000649779
0.00083653
0.00112945
0.00159872
0.00237206
0.00416469
0.00933378
0.022597
0.0299139
0.0185463
0.000860984
0.00235578
0.00379059
0.00358018
0.00298536
0.00237952
0.00187883
0.00147487
0.00116451
0.000936966
0.000774907
0.000659987
0.000577183
0.00051613
0.000470093
0.000434999
0.000408241
0.000388332
0.000373828
0.000364635
0.000359104
0.000359523
0.000362372
0.000369126
0.000381604
0.000400575
0.000427667
0.000467457
0.000524465
0.000611215
0.000739919
0.000945193
0.00125882
0.0017692
0.00256751
0.00435575
0.00943358
0.0231765
0.031051
0.0190143
0.00074404
0.00166155
0.00351793
0.00351617
0.00320461
0.00264453
0.00217747
0.00178377
0.00145764
0.0011962
0.000992956
0.000838353
0.00072221
0.000635087
0.0005701
0.000521569
0.000485334
0.000459041
0.000440225
0.000428493
0.000421207
0.00042152
0.000424652
0.000432352
0.000446911
0.000469544
0.000501586
0.000549449
0.000616621
0.000719669
0.000867298
0.00110394
0.00145202
0.00203255
0.00289949
0.00476325
0.00982033
0.0238866
0.0317325
0.0193465
0.000766586
0.00129142
0.00289059
0.00332261
0.00321266
0.00290289
0.00251618
0.00216927
0.00185665
0.00158081
0.00134554
0.00115088
0.000993387
0.000868807
0.000770992
0.000695425
0.000637483
0.00059465
0.000563482
0.000542974
0.000529189
0.000525573
0.000528195
0.000536265
0.000553086
0.000582223
0.000623638
0.000687156
0.000773837
0.000908359
0.00109237
0.00139073
0.00180784
0.00252389
0.00355206
0.0056608
0.0108466
0.025008
0.0320081
0.0194627
0.00108053
0.00114125
0.00217894
0.00287767
0.00316683
0.00309864
0.00290286
0.00263551
0.00236759
0.00210654
0.00185935
0.0016347
0.00143829
0.00126932
0.00113226
0.00102304
0.000936999
0.000870214
0.000819764
0.000784546
0.000761179
0.000752508
0.000756087
0.000768444
0.000794673
0.000840941
0.000907383
0.00100958
0.00114516
0.00135399
0.00162593
0.00206667
0.00264739
0.003659
0.00504628
0.00770786
0.0131918
0.0269031
0.0319875
0.0193833
0.00173837
0.00132092
0.00202264
0.00283155
0.00332631
0.00354976
0.00355166
0.00344895
0.00323831
0.00299448
0.00274237
0.0024949
0.0022651
0.00205977
0.0018808
0.0017304
0.00160995
0.00151554
0.00144904
0.00140447
0.00138637
0.00139283
0.0014166
0.00146819
0.00155055
0.00167122
0.00182685
0.0020493
0.00234115
0.00275861
0.00329076
0.00410447
0.00512577
0.00682865
0.00895075
0.012919
0.0184928
0.0302602
0.0318409
0.0187747
0.00289276
0.00201793
0.00283163
0.00382863
0.00459705
0.00514978
0.00539948
0.00543353
0.0053285
0.00510404
0.00483867
0.0045634
0.00430177
0.00406954
0.0038756
0.00372326
0.00361928
0.00355666
0.00356108
0.00359476
0.00367815
0.00382647
0.00403523
0.00430109
0.00465753
0.00508491
0.00564652
0.00630832
0.00713822
0.00817001
0.00955672
0.0113576
0.0136257
0.0167567
0.0204224
0.0261478
0.0312066
0.0363776
0.0327714
0.0176782
0.00486999
0.00474186
0.00804217
0.0107766
0.0123044
0.0131468
0.0134534
0.0134147
0.0132461
0.0129147
0.0125544
0.0122182
0.0119521
0.0117635
0.0117049
0.0117457
0.0118733
0.0121331
0.0125317
0.0130496
0.0137031
0.0144651
0.0154198
0.0164839
0.0178206
0.0192505
0.0210942
0.022967
0.0255032
0.0279046
0.0312335
0.0341585
0.0384725
0.0418111
0.0469089
0.0494492
0.0483018
0.042563
0.0331808
0.0154107
0.00330224
0.00509941
0.00661736
0.00818619
0.00961373
0.0109015
0.0119902
0.0128894
0.0135144
0.0139184
0.0141628
0.0142495
0.0142237
0.0141507
0.0140024
0.0138195
0.0136245
0.0134272
0.0132302
0.0130533
0.0128868
0.0127542
0.01264
0.0125669
0.0125181
0.0125245
0.0125544
0.0126222
0.0127652
0.0128942
0.0131646
0.0133675
0.0138325
0.0141903
0.0149854
0.0154953
0.0163492
0.0164234
0.0158666
0.013257
)
;

boundaryField
{
    movingWall
    {
        type            epsilonWallFunction;
        value           nonuniform List<scalar> 
40
(
0.00330224
0.00509941
0.00661736
0.00818619
0.00961373
0.0109015
0.0119902
0.0128894
0.0135144
0.0139184
0.0141628
0.0142495
0.0142237
0.0141507
0.0140024
0.0138195
0.0136245
0.0134272
0.0132302
0.0130533
0.0128868
0.0127542
0.01264
0.0125669
0.0125181
0.0125245
0.0125544
0.0126222
0.0127652
0.0128942
0.0131646
0.0133675
0.0138325
0.0141903
0.0149854
0.0154953
0.0163492
0.0164234
0.0158666
0.013257
)
;
    }
    fixedWalls
    {
        type            epsilonWallFunction;
        value           nonuniform List<scalar> 
120
(
2.6987e-05
0.000130491
0.000394795
0.000908993
0.0017197
0.00287977
0.00435137
0.0059279
0.007291
0.00828851
0.00900363
0.00939571
0.00938444
0.00926737
0.00898702
0.00849919
0.00793833
0.00727048
0.00661718
0.00585321
0.00523297
0.00470491
0.00423689
0.00381091
0.00341196
0.0030338
0.00266483
0.00230411
0.0019397
0.00161215
0.00133536
0.00108787
0.000860984
0.00074404
0.000766586
0.00108053
0.00173837
0.00289276
0.00486999
0.00330224
4.545e-05
7.67908e-05
6.29853e-05
4.41093e-05
5.19662e-05
9.94453e-05
0.000225959
0.000567934
0.00153106
0.00271725
0.00386274
0.00478864
0.00565832
0.00646256
0.00724976
0.00801449
0.00877515
0.00953025
0.0102806
0.0110305
0.0117714
0.0125102
0.0132336
0.0139464
0.0146347
0.0153006
0.0159306
0.0165294
0.0170829
0.0176031
0.0180825
0.0185463
0.0190143
0.0193465
0.0194627
0.0193833
0.0187747
0.0176782
0.0154107
0.013257
2.6987e-05
9.19734e-05
0.000178908
0.000178981
0.00016428
0.000168187
0.000216754
0.000368246
0.000554614
0.000792524
0.00123486
0.00154903
0.00170803
0.00189416
0.00218812
0.0025681
0.00292337
0.0033295
0.0037232
0.00417226
0.00463381
0.00516071
0.00573292
0.00639929
0.00717711
0.00786788
0.00857546
0.00917698
0.00970042
0.0099838
0.0100966
0.00989686
0.00908961
0.00771509
0.00579418
0.00342153
0.00165631
0.000692273
0.000219644
4.545e-05
)
;
    }
    frontAndBack
    {
        type            empty;
    }
}


// ************************************************************************* //
