/*--------------------------------*- C++ -*----------------------------------*\
  =========                 |
  \\      /  F ield         | OpenFOAM: The Open Source CFD Toolbox
   \\    /   O peration     | Website:  https://openfoam.org
    \\  /    A nd           | Version:  12
     \\/     M anipulation  |
\*---------------------------------------------------------------------------*/
FoamFile
{
    format      ascii;
    class       volScalarField;
    location    "7.5";
    object      k;
}
// * * * * * * * * * * * * * * * * * * * * * * * * * * * * * * * * * * * * * //

dimensions      [0 2 -2 0 0 0 0];

internalField   nonuniform List<scalar> 
1600
(
2.10914e-06
7.18726e-06
1.39802e-05
1.39848e-05
1.28359e-05
1.31413e-05
1.69375e-05
2.87782e-05
4.33438e-05
6.19457e-05
9.6507e-05
0.000121049
0.000133471
0.000148019
0.000170991
0.000200683
0.000228439
0.000260173
0.000290931
0.000326019
0.000362078
0.000403248
0.000447954
0.00050002
0.000560791
0.000614759
0.000670041
0.000717036
0.000757931
0.000780071
0.000788882
0.000773278
0.00071021
0.000602824
0.000452748
0.000267369
0.000129434
5.41011e-05
1.71661e-05
3.55228e-06
1.01983e-05
4.64488e-05
8.91543e-05
9.55446e-05
9.29994e-05
9.94437e-05
0.000140107
0.000239749
0.00033602
0.000456526
0.000664585
0.000767364
0.000792196
0.000795538
0.000796665
0.00083215
0.000851934
0.000894556
0.000927687
0.000976428
0.00102295
0.00107909
0.00113455
0.00119138
0.00124419
0.00131013
0.00137411
0.00144286
0.00150086
0.00153506
0.00154719
0.00151206
0.00140529
0.00121247
0.000953617
0.000583562
0.000261564
0.000108375
3.78253e-05
6.00163e-06
3.08551e-05
0.00012228
0.000192438
0.000205628
0.000223999
0.000294666
0.000487317
0.000794238
0.00104253
0.00113136
0.00107348
0.000963821
0.000911021
0.000892125
0.000887492
0.000892973
0.000904249
0.000922641
0.000943115
0.000970432
0.000996488
0.00102425
0.00105337
0.00108595
0.00112117
0.00115939
0.00119888
0.00123999
0.00127994
0.00131734
0.00133826
0.00134618
0.00132907
0.00121845
0.00103491
0.000661776
0.00024534
8.9297e-05
3.40263e-05
4.9227e-06
7.10419e-05
0.000252587
0.000349564
0.000389289
0.000485683
0.000716143
0.00105325
0.00123354
0.00125983
0.00111797
0.0010118
0.000927417
0.000891657
0.000877573
0.000873025
0.000874104
0.000881545
0.000892209
0.000904707
0.000919808
0.000936338
0.000956956
0.000977711
0.00100093
0.00102487
0.00105043
0.00107702
0.00110451
0.00113146
0.00115548
0.00117236
0.00118015
0.00118161
0.00115739
0.00109656
0.000920149
0.000400787
9.59689e-05
2.57853e-05
3.44736e-06
0.000134401
0.000443108
0.000575086
0.000666416
0.000860017
0.00115765
0.00130633
0.00131697
0.0011864
0.00100209
0.000910012
0.00086613
0.000846526
0.000838303
0.000835874
0.000840869
0.000853707
0.000867952
0.000885301
0.000903009
0.000921322
0.000939467
0.000957602
0.000976574
0.000996878
0.00101932
0.00104412
0.00107075
0.00109695
0.00111842
0.0011329
0.00113964
0.00114144
0.0011302
0.00110083
0.00102839
0.00077402
0.000215657
3.64263e-05
4.06102e-06
0.000225063
0.000680395
0.000848511
0.000980274
0.00119469
0.00132319
0.00133609
0.00122664
0.000999722
0.000888248
0.000837422
0.000814796
0.000806382
0.000804806
0.000813686
0.000828062
0.000845046
0.000861726
0.000879223
0.000895792
0.000912231
0.000928309
0.000945106
0.000963089
0.000983777
0.00100772
0.00103565
0.00106751
0.00110245
0.00113943
0.00115909
0.00116432
0.00116176
0.00114526
0.00110959
0.0010529
0.000916609
0.000446752
7.99751e-05
7.77039e-06
0.000340065
0.000925139
0.00112324
0.00123954
0.00132997
0.00134494
0.00125471
0.00101914
0.000875832
0.000814627
0.000788958
0.00078008
0.000778797
0.000788874
0.00080316
0.000817781
0.000831961
0.000844916
0.000856541
0.000866342
0.000875993
0.000887045
0.000901226
0.000919531
0.000942639
0.000971757
0.00100751
0.00105005
0.00109837
0.00114965
0.00120275
0.00124085
0.00124965
0.00124126
0.00119594
0.00110446
0.000969141
0.000696991
0.000162086
1.76547e-05
0.000463267
0.0011676
0.00134153
0.00137918
0.00137918
0.00128468
0.00107004
0.000880857
0.000800533
0.000768545
0.000757678
0.000755868
0.000763814
0.000776418
0.000786721
0.000795287
0.000799851
0.000801967
0.000802848
0.000804195
0.000808272
0.000815711
0.00082781
0.000845457
0.000869939
0.000902469
0.000944258
0.000996263
0.00105864
0.00112965
0.00120399
0.00127295
0.00131723
0.00132518
0.00131271
0.00123685
0.00106861
0.000796769
0.000277461
4.43736e-05
0.000569784
0.00136333
0.00149766
0.00147067
0.00134594
0.0011479
0.000912194
0.000799851
0.000754534
0.000738696
0.000735087
0.000738472
0.000747223
0.000751496
0.000752795
0.000750147
0.000743942
0.000737227
0.000731497
0.00072883
0.000728283
0.000732955
0.000743316
0.000760101
0.00078455
0.000817884
0.000861685
0.000917733
0.000987785
0.00107267
0.00117039
0.00127279
0.00135721
0.00139599
0.00139892
0.00135872
0.00122202
0.000951039
0.000503018
0.000119623
0.000647733
0.00149569
0.00159786
0.00147043
0.00126203
0.00099335
0.000821854
0.000750765
0.00072419
0.000716232
0.00071508
0.000717942
0.000719069
0.000714701
0.00070559
0.000693279
0.000679792
0.000667507
0.000657572
0.000652242
0.000650317
0.000652597
0.000662252
0.000678152
0.000701934
0.000734544
0.000777665
0.000833375
0.000904379
0.000993614
0.00110304
0.00123066
0.00136506
0.00145668
0.00148389
0.00146685
0.00134841
0.00107085
0.000612004
0.000212299
0.000703615
0.00158363
0.00165862
0.00144405
0.00114359
0.000885868
0.000766132
0.000717969
0.000700431
0.000694775
0.000692876
0.000690926
0.000683163
0.000669597
0.000652414
0.000633888
0.00061617
0.000600923
0.000589056
0.00058251
0.000580019
0.000581056
0.000590199
0.000605341
0.000628247
0.000659704
0.000701294
0.000755061
0.000823943
0.000911832
0.00102309
0.0011604
0.0013196
0.00148021
0.00156283
0.00157492
0.00150004
0.00123613
0.000755316
0.000301792
0.000734255
0.00161771
0.00166198
0.00138515
0.00103308
0.000818644
0.000728204
0.000692203
0.000678371
0.000672491
0.000667606
0.000658465
0.000642549
0.00062207
0.000599713
0.000577778
0.000557995
0.000541462
0.000528825
0.00052166
0.000518862
0.000519129
0.000527528
0.000541866
0.000563737
0.000593934
0.000633886
0.000685485
0.000751564
0.000836339
0.000945681
0.00108626
0.00126169
0.00146314
0.00161499
0.00165974
0.00161888
0.00136964
0.000872638
0.00037413
0.000733375
0.00161447
0.0016459
0.00130918
0.000946685
0.000771805
0.000698936
0.000669298
0.000656689
0.000649449
0.0006396
0.00062353
0.000601446
0.000576475
0.000551254
0.000527728
0.000507121
0.000490121
0.000477151
0.000469409
0.000466216
0.000466003
0.000473285
0.000486675
0.000507365
0.000536239
0.000574601
0.000624154
0.000687412
0.000768281
0.000872814
0.00100949
0.00118711
0.00140672
0.00163703
0.00174599
0.00174658
0.00152498
0.000992743
0.000442075
0.000724228
0.0015955
0.00160707
0.00122935
0.000886961
0.000736493
0.000674243
0.000648045
0.000635854
0.00062577
0.000610705
0.000589083
0.000562845
0.000535274
0.000508691
0.000484583
0.00046375
0.000446608
0.000433428
0.000425049
0.000421356
0.000420781
0.000426764
0.000439043
0.000458435
0.000485915
0.000522749
0.000570537
0.000631541
0.000709294
0.000809632
0.000941896
0.00111881
0.00135088
0.00162879
0.00181753
0.00185074
0.00166476
0.00111206
0.000504908
0.000702323
0.00155308
0.00154884
0.00115925
0.000842702
0.000708063
0.000652481
0.000628374
0.000615908
0.000602448
0.000582853
0.000557228
0.000528423
0.000499516
0.000472434
0.000448251
0.000427464
0.000410314
0.000396982
0.000387995
0.000383799
0.000382864
0.000387576
0.000398615
0.000416587
0.000442533
0.000477742
0.000523783
0.000582726
0.000657667
0.000753787
0.000880054
0.00105068
0.00128257
0.00158074
0.00186214
0.00195496
0.0018103
0.00123234
0.000566408
0.000664205
0.00149854
0.00148351
0.00110102
0.000808171
0.00068436
0.000633279
0.000610787
0.000597232
0.000580591
0.000557462
0.000529153
0.000498886
0.000469414
0.000442299
0.000418294
0.000397698
0.000380644
0.000367254
0.000357777
0.000353115
0.00035184
0.000355419
0.000365156
0.000381611
0.000405872
0.000439305
0.000483539
0.0005406
0.000613309
0.000706285
0.000827911
0.000993017
0.00122292
0.0015323
0.00188028
0.00204193
0.00194782
0.00135575
0.000626153
0.000620382
0.00143629
0.00141617
0.00105355
0.000780809
0.000664476
0.000616603
0.000595228
0.000580304
0.000561035
0.000535359
0.000505369
0.00047436
0.00044477
0.000417866
0.00039418
0.000373876
0.000357017
0.00034367
0.000333967
0.00032885
0.000327259
0.000329886
0.000338333
0.000353213
0.00037566
0.00040713
0.000449377
0.000504477
0.000575084
0.00066523
0.000782284
0.00094058
0.00116482
0.00148269
0.00188289
0.0021236
0.00208265
0.00147952
0.000685581
0.000568195
0.00137569
0.00135171
0.00101573
0.000759541
0.000648146
0.000602449
0.000581714
0.000565484
0.000544257
0.000516893
0.000485946
0.000454654
0.000425201
0.000398643
0.000375361
0.000355434
0.000338867
0.000325682
0.000315958
0.000310437
0.000308542
0.000310399
0.000317633
0.000330946
0.000351513
0.000380882
0.000420969
0.000474015
0.000542698
0.000630674
0.000744305
0.000896585
0.00111276
0.00142918
0.00185825
0.00219324
0.00221172
0.00161134
0.000744573
0.000517149
0.00131262
0.0012917
0.000986616
0.000743722
0.000634823
0.000590479
0.000570121
0.000552918
0.000530421
0.000502089
0.000470719
0.000439445
0.000410272
0.000384127
0.000361298
0.000341807
0.00032561
0.000312685
0.000303065
0.000297222
0.000295017
0.00029626
0.000302397
0.000314218
0.000332927
0.000360129
0.000397917
0.000448749
0.000515472
0.000601556
0.000712459
0.000859602
0.00106769
0.00137904
0.00182525
0.00225468
0.00233646
0.00174423
0.000803196
0.000457449
0.00125892
0.00123826
0.000964491
0.000733112
0.000624922
0.000580857
0.000560439
0.000542589
0.000519454
0.000490767
0.000459371
0.000428311
0.000399508
0.000373813
0.000351461
0.000332432
0.000316646
0.000304039
0.000294599
0.000288543
0.000286
0.000286735
0.000291899
0.000302368
0.000319341
0.000344409
0.000379856
0.000428365
0.000493092
0.000577546
0.000686454
0.000829463
0.00102958
0.00133274
0.00178755
0.00229706
0.00245853
0.00188543
0.00086178
0.000408979
0.00120079
0.00119229
0.000949187
0.000728021
0.00061747
0.000572784
0.000552295
0.000534278
0.000511121
0.000482614
0.000451572
0.000420931
0.000392547
0.000367274
0.00034537
0.000326793
0.000311421
0.000299145
0.000289914
0.000283793
0.000280939
0.000281441
0.000285827
0.00029505
0.000310266
0.000333255
0.000366437
0.000412574
0.000475237
0.000558192
0.000665671
0.000805545
0.000998464
0.00129235
0.00175171
0.00232684
0.00257783
0.00202931
0.000919664
0.000367713
0.00114092
0.00114868
0.000941827
0.000729367
0.000614857
0.000567259
0.000545735
0.000527734
0.000505075
0.000477252
0.000446803
0.000416622
0.000388729
0.000364054
0.000342703
0.00032461
0.000309625
0.000297613
0.000288502
0.000282329
0.000279272
0.000279652
0.00028347
0.000291813
0.000305803
0.000326988
0.000357667
0.000401175
0.000461764
0.000543312
0.000649837
0.000787472
0.000973778
0.00125688
0.00171719
0.00234162
0.00269427
0.00218107
0.000977384
0.000331138
0.00108195
0.00110969
0.000942236
0.000734658
0.00061625
0.000563186
0.000540443
0.000522632
0.000500908
0.000474175
0.000444927
0.00041593
0.000388786
0.000364375
0.000343211
0.000325285
0.000310457
0.000298589
0.00028959
0.000283467
0.000280362
0.000280555
0.000283648
0.000291189
0.000304419
0.000324597
0.000353548
0.000394931
0.000453086
0.000532928
0.000638879
0.000775272
0.000955601
0.00122704
0.00168447
0.00234837
0.00280846
0.00233698
0.00103389
0.000297848
0.001025
0.00107481
0.000944897
0.000746636
0.000621113
0.000563337
0.000536624
0.000518775
0.000498274
0.000473163
0.000445348
0.000416995
0.0003903
0.000366319
0.000345485
0.000327847
0.0003133
0.000301714
0.000292956
0.000287
0.000283994
0.000284189
0.000286888
0.000293656
0.000305839
0.000324569
0.000352417
0.00039261
0.000449134
0.000527821
0.000633478
0.000769352
0.000944587
0.00120253
0.00165183
0.00235019
0.00291846
0.00249942
0.00108958
0.000266669
0.000969583
0.0010444
0.000951437
0.000762833
0.000631472
0.000565562
0.000535105
0.000515856
0.000496496
0.000473437
0.000446909
0.000419798
0.000393987
0.000370684
0.000350361
0.000333136
0.000318928
0.000307584
0.000299006
0.000293163
0.000290227
0.000290493
0.000293053
0.000299443
0.000311079
0.000328901
0.000355097
0.000393093
0.00044821
0.000526147
0.000631641
0.000767402
0.000939746
0.001184
0.00162096
0.00234554
0.00302508
0.00266632
0.00114335
0.000237114
0.000916007
0.0010179
0.000956656
0.000789349
0.000649193
0.000571697
0.00053606
0.000514886
0.000496079
0.000474398
0.000450057
0.000424603
0.000399936
0.000377375
0.000357563
0.000340717
0.00032682
0.000315758
0.000307431
0.000301793
0.000299088
0.000299503
0.000302128
0.000308452
0.00031984
0.000337151
0.000362494
0.000399225
0.000452412
0.000528667
0.000633819
0.000769709
0.000938822
0.00117148
0.00159197
0.00233417
0.00312581
0.00283907
0.00119538
0.000208277
0.000861614
0.000994516
0.000956842
0.00082087
0.000675329
0.000584627
0.000539836
0.000515723
0.000496601
0.000476362
0.000454045
0.000430496
0.0004073
0.000385771
0.000366682
0.000350373
0.000336913
0.000326245
0.000318292
0.000312981
0.00031072
0.000311361
0.000314222
0.000320769
0.000332163
0.000349258
0.00037408
0.000409933
0.000462008
0.000537314
0.00064224
0.00077848
0.00094496
0.00116549
0.00156589
0.00232266
0.00322064
0.00301202
0.0012446
0.000180084
0.000806785
0.000970889
0.000954536
0.000855312
0.000708436
0.000606064
0.000548672
0.000518953
0.000498404
0.000479076
0.0004586
0.000437078
0.000415644
0.000395483
0.000377424
0.00036191
0.000349107
0.000339024
0.000331635
0.000326808
0.000325263
0.000326209
0.000329463
0.000336503
0.000348131
0.000365274
0.000389898
0.000425258
0.00047651
0.000550876
0.000655224
0.00079126
0.000955262
0.00116342
0.00154073
0.00229922
0.00331129
0.0031867
0.00129137
0.0001516
0.000746426
0.000949154
0.000948044
0.000887471
0.000750922
0.000637377
0.000566467
0.000526962
0.000502809
0.000483091
0.000463819
0.000444141
0.000424597
0.000406096
0.000389408
0.000375023
0.000363181
0.000353955
0.000347377
0.000343255
0.000342703
0.000344036
0.00034785
0.000355638
0.000367688
0.000385108
0.000409824
0.000445058
0.000495869
0.000569477
0.000672906
0.000808036
0.00096919
0.00116384
0.00151857
0.00226819
0.00339331
0.00335411
0.00133462
0.000125995
0.000689783
0.000925558
0.000939827
0.000904761
0.000799525
0.000680281
0.000595887
0.000543715
0.000512356
0.000490053
0.000470673
0.00045214
0.000434234
0.000417438
0.000402334
0.000389365
0.000378786
0.000370723
0.000365172
0.000362223
0.000362542
0.000364516
0.000369241
0.000377837
0.000390477
0.000408376
0.000433438
0.000468882
0.000519559
0.000592466
0.00069438
0.000827428
0.000984987
0.00116754
0.00149711
0.0022294
0.00346266
0.00351179
0.00137526
0.000104359
0.000627017
0.000908855
0.000932353
0.000912806
0.000844274
0.000732342
0.000639135
0.000574077
0.00053179
0.000503379
0.000481412
0.000462466
0.000445315
0.000429812
0.000416185
0.000404714
0.00039555
0.000388897
0.000384466
0.000383211
0.000384136
0.000386986
0.000392959
0.000402384
0.000415744
0.000434302
0.000459929
0.000495859
0.000546583
0.000618683
0.000718242
0.000847676
0.00100041
0.001171
0.0014774
0.00218732
0.00351505
0.00364812
0.00141271
8.50123e-05
0.00054865
0.000901254
0.000930265
0.00091806
0.000876587
0.000787704
0.000696089
0.000622071
0.000568193
0.00053007
0.000501889
0.000479596
0.000461075
0.000445434
0.000432371
0.000421857
0.00041381
0.000408385
0.000405144
0.000405344
0.000406954
0.000410843
0.000417975
0.000428279
0.000442438
0.000461794
0.000488134
0.000524704
0.000575418
0.000646326
0.000742405
0.000866487
0.0010131
0.00117308
0.00146167
0.00214985
0.00354917
0.00375204
0.00144894
6.72774e-05
0.000455756
0.00088172
0.000930552
0.000924716
0.00090098
0.000842218
0.000762126
0.000687763
0.000626003
0.000577687
0.000540391
0.000511257
0.000488138
0.000469698
0.000455141
0.000444012
0.000435978
0.000430801
0.000428426
0.000429049
0.00043129
0.000436113
0.000443951
0.00045499
0.000469865
0.000490015
0.000517029
0.000554143
0.000604437
0.000673452
0.000764828
0.000882133
0.00102216
0.00117549
0.00145525
0.00213191
0.00357117
0.00380217
0.00148551
5.81366e-05
0.000379211
0.000833065
0.000925235
0.00092763
0.000920045
0.000894048
0.000838252
0.000772477
0.000710327
0.000655586
0.000609312
0.000571059
0.000539935
0.000515021
0.000495487
0.000480719
0.000470023
0.00046316
0.000459186
0.000459394
0.000461182
0.000465494
0.000473184
0.000484341
0.000499448
0.000520022
0.00054731
0.000584513
0.000633688
0.000700093
0.000786161
0.000896741
0.00103235
0.00118801
0.00146493
0.00212862
0.00359415
0.00381975
0.00151145
5.99011e-05
0.000351346
0.000739823
0.000900756
0.000932349
0.000941346
0.000936893
0.00091764
0.000875616
0.000821858
0.000767785
0.000716939
0.000671258
0.000631561
0.000598084
0.000570577
0.000548702
0.000531855
0.000519601
0.000511439
0.00050669
0.000506805
0.000508855
0.000514036
0.000523951
0.000538295
0.00055859
0.000585633
0.000622573
0.000670567
0.000734958
0.000817854
0.000925901
0.00106577
0.00124103
0.00154477
0.00221232
0.00363922
0.00380152
0.00152051
8.44408e-05
0.000372197
0.000652493
0.000846839
0.000942176
0.000985889
0.00100765
0.00100859
0.000997836
0.000969841
0.000925435
0.000876742
0.000827786
0.000781451
0.000739241
0.000701907
0.000669954
0.000643157
0.000621871
0.000605155
0.000594053
0.000586302
0.000586311
0.000588863
0.000595518
0.000608838
0.000629302
0.000657405
0.000696301
0.000747071
0.000815456
0.000905307
0.00102484
0.00119039
0.00141141
0.00177565
0.00244387
0.00371286
0.00369587
0.00151428
0.000135862
0.000462203
0.000668201
0.000867505
0.00100012
0.00109272
0.00115294
0.00117921
0.00118325
0.00117406
0.00114928
0.00110714
0.00105806
0.00100645
0.000955827
0.000908376
0.000865924
0.00082883
0.000800026
0.000776837
0.000762515
0.000751681
0.000751652
0.000755271
0.000764697
0.000783668
0.000811942
0.000851049
0.00090495
0.000975392
0.00106972
0.00119418
0.00135873
0.0015872
0.00188422
0.00234115
0.00297249
0.00384619
0.00359652
0.00146669
0.000226084
0.000649621
0.000835658
0.0010589
0.00123641
0.00137665
0.00147162
0.00152117
0.00152619
0.00151724
0.00149386
0.00145384
0.00140696
0.00135889
0.00131251
0.00127052
0.00123575
0.00120754
0.00118768
0.00117353
0.00117408
0.00117996
0.00119458
0.00122275
0.00126286
0.00131547
0.00138558
0.00147002
0.00157758
0.00170661
0.00187877
0.0020823
0.00234816
0.00266326
0.00305948
0.00355444
0.00399027
0.00413857
0.00347264
0.0013809
0.000380576
0.00108522
0.00149575
0.00187872
0.00211224
0.00226077
0.00234424
0.00237948
0.00237233
0.00235396
0.00232685
0.00229647
0.0022655
0.00224159
0.00222226
0.00221505
0.0022192
0.00223149
0.00225748
0.00229562
0.00234739
0.00241367
0.00249473
0.00259081
0.00270649
0.00283607
0.00299377
0.00315917
0.00337106
0.00357191
0.00384395
0.00407078
0.00441746
0.00463593
0.00504495
0.0051179
0.0049715
0.00435233
0.0030383
0.00120372
0.00025806
0.000398492
0.000517106
0.000639685
0.000751231
0.000851861
0.000936938
0.0010072
0.00105604
0.00108761
0.00110671
0.00111347
0.00111146
0.00110575
0.00109416
0.00107985
0.0010646
0.00104918
0.00103377
0.00101994
0.0010069
0.00099654
0.000987585
0.000981871
0.000978029
0.000978503
0.000981012
0.000985708
0.00099753
0.00100714
0.00102859
0.00104417
0.00108074
0.00110837
0.00117081
0.0012105
0.00127726
0.00128299
0.00123953
0.0010357
)
;

boundaryField
{
    movingWall
    {
        type            kqRWallFunction;
        value           nonuniform List<scalar> 
40
(
0.00025806
0.000398492
0.000517106
0.000639685
0.000751231
0.000851861
0.000936938
0.0010072
0.00105604
0.00108761
0.00110671
0.00111347
0.00111146
0.00110575
0.00109416
0.00107985
0.0010646
0.00104918
0.00103377
0.00101994
0.0010069
0.00099654
0.000987585
0.000981871
0.000978029
0.000978503
0.000981012
0.000985708
0.00099753
0.00100714
0.00102859
0.00104417
0.00108074
0.00110837
0.00117081
0.0012105
0.00127726
0.00128299
0.00123953
0.0010357
)
;
    }
    fixedWalls
    {
        type            kqRWallFunction;
        value           nonuniform List<scalar> 
120
(
2.10914e-06
1.01983e-05
3.08551e-05
7.10419e-05
0.000134401
0.000225063
0.000340065
0.000463267
0.000569784
0.000647733
0.000703615
0.000734255
0.000733375
0.000724228
0.000702323
0.000664205
0.000620382
0.000568195
0.000517149
0.000457449
0.000408979
0.000367713
0.000331138
0.000297848
0.000266669
0.000237114
0.000208277
0.000180084
0.0001516
0.000125995
0.000104359
8.50123e-05
6.72774e-05
5.81366e-05
5.99011e-05
8.44408e-05
0.000135862
0.000226084
0.000380576
0.00025806
3.55228e-06
6.00163e-06
4.9227e-06
3.44736e-06
4.06102e-06
7.77039e-06
1.76547e-05
4.43736e-05
0.000119623
0.000212299
0.000301792
0.00037413
0.000442075
0.000504908
0.000566408
0.000626153
0.000685581
0.000744573
0.000803196
0.00086178
0.000919664
0.000977384
0.00103389
0.00108958
0.00114335
0.00119538
0.0012446
0.00129137
0.00133462
0.00137526
0.00141271
0.00144894
0.00148551
0.00151145
0.00152051
0.00151428
0.00146669
0.0013809
0.00120372
0.0010357
2.10914e-06
7.18726e-06
1.39802e-05
1.39848e-05
1.28359e-05
1.31413e-05
1.69375e-05
2.87782e-05
4.33438e-05
6.19457e-05
9.6507e-05
0.000121049
0.000133471
0.000148019
0.000170991
0.000200683
0.000228439
0.000260173
0.000290931
0.000326019
0.000362078
0.000403248
0.000447954
0.00050002
0.000560791
0.000614759
0.000670041
0.000717036
0.000757931
0.000780071
0.000788882
0.000773278
0.00071021
0.000602824
0.000452748
0.000267369
0.000129434
5.41011e-05
1.71661e-05
3.55228e-06
)
;
    }
    frontAndBack
    {
        type            empty;
    }
}


// ************************************************************************* //
