/*--------------------------------*- C++ -*----------------------------------*\
  =========                 |
  \\      /  F ield         | OpenFOAM: The Open Source CFD Toolbox
   \\    /   O peration     | Website:  https://openfoam.org
    \\  /    A nd           | Version:  12
     \\/     M anipulation  |
\*---------------------------------------------------------------------------*/
FoamFile
{
    format      ascii;
    class       volScalarField;
    location    "7.5";
    object      nut;
}
// * * * * * * * * * * * * * * * * * * * * * * * * * * * * * * * * * * * * * //

dimensions      [0 2 -1 0 0 0 0];

internalField   nonuniform List<scalar> 
1600
(
1.48353e-08
5.05483e-08
9.83192e-08
9.8344e-08
9.02628e-08
9.24123e-08
1.19117e-07
2.02409e-07
3.04864e-07
4.35765e-07
6.78801e-07
8.51345e-07
9.38684e-07
1.04102e-06
1.2026e-06
1.41141e-06
1.60657e-06
1.82974e-06
2.046e-06
2.29275e-06
2.5463e-06
2.83581e-06
3.15016e-06
3.51629e-06
3.94362e-06
4.32309e-06
4.71181e-06
5.04226e-06
5.3298e-06
5.48548e-06
5.54744e-06
5.43772e-06
4.99426e-06
4.23919e-06
3.18393e-06
1.88037e-06
9.10332e-07
3.8052e-07
1.20744e-07
2.49874e-08
7.17333e-08
1.18199e-06
3.539e-06
4.24716e-06
4.16483e-06
3.99116e-06
4.53351e-06
6.17167e-06
6.73389e-06
7.56354e-06
9.0789e-06
9.99944e-06
1.04681e-05
1.12583e-05
1.20704e-05
1.36044e-05
1.46581e-05
1.6311e-05
1.75691e-05
1.90586e-05
2.03213e-05
2.16546e-05
2.28872e-05
2.39073e-05
2.45114e-05
2.53162e-05
2.58671e-05
2.63523e-05
2.65053e-05
2.61487e-05
2.58804e-05
2.46018e-05
2.27336e-05
1.95218e-05
1.62357e-05
1.05322e-05
5.07603e-06
2.00941e-06
6.805e-07
4.22155e-08
2.17033e-07
3.20674e-06
7.82356e-06
9.41147e-06
9.93684e-06
1.03706e-05
1.29745e-05
1.67207e-05
1.77354e-05
1.79937e-05
1.651e-05
1.56334e-05
1.52572e-05
1.66206e-05
1.81026e-05
1.98406e-05
2.1749e-05
2.3714e-05
2.54926e-05
2.73296e-05
2.89173e-05
3.02036e-05
3.09296e-05
3.14816e-05
3.18165e-05
3.20073e-05
3.19435e-05
3.16429e-05
3.10122e-05
2.99574e-05
2.80616e-05
2.61203e-05
2.45401e-05
2.07474e-05
1.71858e-05
1.03643e-05
4.43981e-06
2.15909e-06
8.79586e-07
3.46267e-08
4.99702e-07
6.99245e-06
1.35397e-05
1.5752e-05
1.68498e-05
1.87916e-05
2.13449e-05
2.17279e-05
2.13315e-05
1.84785e-05
1.75346e-05
1.89032e-05
2.07581e-05
2.35559e-05
2.54751e-05
2.79508e-05
2.98433e-05
3.15677e-05
3.28989e-05
3.41108e-05
3.48873e-05
3.55657e-05
3.59194e-05
3.6142e-05
3.61262e-05
3.592e-05
3.54663e-05
3.47565e-05
3.37213e-05
3.2274e-05
3.03067e-05
2.78192e-05
2.48169e-05
2.13428e-05
1.83929e-05
1.4021e-05
5.17293e-06
1.73107e-06
6.09019e-07
2.42486e-08
9.45353e-07
1.26301e-05
2.01515e-05
2.15814e-05
2.2533e-05
2.44931e-05
2.46126e-05
2.39784e-05
2.12049e-05
1.99214e-05
2.19526e-05
2.41202e-05
2.69655e-05
2.96664e-05
3.16352e-05
3.35821e-05
3.53283e-05
3.67553e-05
3.80566e-05
3.88577e-05
3.95299e-05
3.99385e-05
4.01653e-05
4.02107e-05
4.01003e-05
3.98235e-05
3.93386e-05
3.85723e-05
3.74241e-05
3.57069e-05
3.34512e-05
3.08129e-05
2.79855e-05
2.44009e-05
1.98673e-05
1.62641e-05
1.02851e-05
2.77078e-06
6.3204e-07
2.85623e-08
1.58304e-06
1.87778e-05
2.59155e-05
2.64125e-05
2.69927e-05
2.66715e-05
2.59627e-05
2.35197e-05
2.1765e-05
2.392e-05
2.63909e-05
2.9295e-05
3.22376e-05
3.42548e-05
3.61769e-05
3.79548e-05
3.9606e-05
4.07308e-05
4.17272e-05
4.24217e-05
4.2982e-05
4.32939e-05
4.34425e-05
4.3391e-05
4.32315e-05
4.29325e-05
4.25085e-05
4.19256e-05
4.11278e-05
4.01079e-05
3.77103e-05
3.44507e-05
3.11671e-05
2.75011e-05
2.31336e-05
1.8261e-05
1.31488e-05
4.4503e-06
9.90391e-07
5.46442e-08
2.39189e-06
2.3538e-05
3.04697e-05
2.98092e-05
2.8597e-05
2.78297e-05
2.55461e-05
2.31911e-05
2.51601e-05
2.79791e-05
3.08371e-05
3.38593e-05
3.59178e-05
3.7973e-05
3.98464e-05
4.14552e-05
4.2888e-05
4.39289e-05
4.4827e-05
4.5348e-05
4.56805e-05
4.58139e-05
4.58787e-05
4.58459e-05
4.57037e-05
4.54676e-05
4.51368e-05
4.46922e-05
4.40837e-05
4.32119e-05
4.22172e-05
4.0257e-05
3.67983e-05
3.30102e-05
2.80581e-05
2.16904e-05
1.55889e-05
8.22083e-06
1.59896e-06
1.24147e-07
3.2584e-06
2.77159e-05
3.33642e-05
3.16357e-05
3.04302e-05
2.75389e-05
2.48843e-05
2.58844e-05
2.87842e-05
3.18412e-05
3.47402e-05
3.70706e-05
3.92053e-05
4.12675e-05
4.29695e-05
4.4473e-05
4.55702e-05
4.63471e-05
4.68562e-05
4.71759e-05
4.76252e-05
4.77872e-05
4.79078e-05
4.78903e-05
4.77715e-05
4.75587e-05
4.72671e-05
4.69072e-05
4.64657e-05
4.58757e-05
4.4976e-05
4.36113e-05
4.11462e-05
3.74584e-05
3.38794e-05
2.77553e-05
1.92378e-05
1.04308e-05
2.14219e-06
3.12028e-07
4.00752e-06
3.04973e-05
3.55309e-05
3.38216e-05
3.02642e-05
2.69938e-05
2.61373e-05
2.89651e-05
3.22425e-05
3.51965e-05
3.77395e-05
3.98479e-05
4.19829e-05
4.36379e-05
4.5129e-05
4.63255e-05
4.7184e-05
4.79119e-05
4.85533e-05
4.90611e-05
4.93324e-05
4.98552e-05
4.99529e-05
5.00058e-05
4.98741e-05
4.96127e-05
4.92323e-05
4.87766e-05
4.82902e-05
4.7794e-05
4.72266e-05
4.63577e-05
4.44183e-05
4.0873e-05
3.6946e-05
3.29728e-05
2.50162e-05
1.46665e-05
4.65298e-06
8.41165e-07
4.55573e-06
3.21189e-05
3.72392e-05
3.41244e-05
2.98809e-05
2.6866e-05
2.87018e-05
3.20108e-05
3.52343e-05
3.78689e-05
4.00525e-05
4.20438e-05
4.38889e-05
4.54317e-05
4.66984e-05
4.77494e-05
4.86536e-05
4.95162e-05
5.03106e-05
5.10777e-05
5.15283e-05
5.20599e-05
5.24212e-05
5.24964e-05
5.23956e-05
5.20646e-05
5.15405e-05
5.08598e-05
5.01032e-05
4.93683e-05
4.87313e-05
4.8159e-05
4.73787e-05
4.43872e-05
3.98103e-05
3.62253e-05
2.94374e-05
1.81411e-05
6.17797e-06
1.49282e-06
4.94874e-06
3.3306e-05
3.87551e-05
3.42689e-05
2.93954e-05
2.85387e-05
3.13126e-05
3.46863e-05
3.76023e-05
3.97986e-05
4.182e-05
4.37292e-05
4.53864e-05
4.67718e-05
4.79798e-05
4.90995e-05
5.01887e-05
5.12708e-05
5.22994e-05
5.33581e-05
5.40167e-05
5.45431e-05
5.52109e-05
5.53289e-05
5.52911e-05
5.49383e-05
5.43118e-05
5.34228e-05
5.23446e-05
5.12012e-05
5.01494e-05
4.92984e-05
4.85632e-05
4.74702e-05
4.32346e-05
3.94226e-05
3.42938e-05
2.29387e-05
8.8102e-06
2.12209e-06
5.16424e-06
3.36283e-05
3.92501e-05
3.44168e-05
2.95397e-05
3.05209e-05
3.36486e-05
3.68114e-05
3.9281e-05
4.12337e-05
4.32333e-05
4.50025e-05
4.65375e-05
4.78952e-05
4.91952e-05
5.05062e-05
5.18422e-05
5.31755e-05
5.44456e-05
5.5757e-05
5.65976e-05
5.71284e-05
5.80266e-05
5.82113e-05
5.82448e-05
5.79326e-05
5.72943e-05
5.63087e-05
5.50097e-05
5.35066e-05
5.20052e-05
5.0761e-05
4.99276e-05
4.9315e-05
4.58912e-05
4.13466e-05
3.74441e-05
2.65584e-05
1.10925e-05
2.63072e-06
5.15806e-06
3.35699e-05
3.95683e-05
3.4283e-05
3.04953e-05
3.23486e-05
3.5525e-05
3.8378e-05
4.04605e-05
4.23913e-05
4.4321e-05
4.59844e-05
4.7496e-05
4.89379e-05
5.04212e-05
5.19718e-05
5.35608e-05
5.51277e-05
5.66001e-05
5.80789e-05
5.90375e-05
5.959e-05
6.05891e-05
6.08302e-05
6.09154e-05
6.06772e-05
6.01094e-05
5.91583e-05
5.77917e-05
5.60455e-05
5.40868e-05
5.22306e-05
5.08213e-05
4.99258e-05
4.84699e-05
4.34954e-05
4.03556e-05
3.05314e-05
1.3668e-05
3.10847e-06
5.09374e-06
3.32928e-05
3.98396e-05
3.4233e-05
3.17212e-05
3.38747e-05
3.69377e-05
3.94992e-05
4.13728e-05
4.33018e-05
4.51554e-05
4.678e-05
4.83497e-05
4.99439e-05
5.16448e-05
5.34332e-05
5.52477e-05
5.70062e-05
5.86266e-05
6.01863e-05
6.11969e-05
6.17699e-05
6.27492e-05
6.30025e-05
6.30957e-05
6.29242e-05
6.24733e-05
6.16707e-05
6.0423e-05
5.86689e-05
5.64781e-05
5.41523e-05
5.22115e-05
5.11276e-05
5.08023e-05
4.60416e-05
4.20732e-05
3.35791e-05
1.6021e-05
3.55027e-06
4.9397e-06
3.26819e-05
3.96243e-05
3.44116e-05
3.27547e-05
3.50615e-05
3.79674e-05
4.02646e-05
4.20892e-05
4.40051e-05
4.5807e-05
4.74518e-05
4.91275e-05
5.08994e-05
5.28123e-05
5.48117e-05
5.68132e-05
5.87206e-05
6.04442e-05
6.201e-05
6.30398e-05
6.36073e-05
6.44839e-05
6.46914e-05
6.47338e-05
6.45847e-05
6.42434e-05
6.36403e-05
6.26397e-05
6.10782e-05
5.88684e-05
5.61614e-05
5.34606e-05
5.14651e-05
5.05729e-05
4.80322e-05
4.37137e-05
3.6521e-05
1.83418e-05
3.98271e-06
4.67164e-06
3.1836e-05
3.91782e-05
3.46777e-05
3.35573e-05
3.59194e-05
3.86873e-05
4.08324e-05
4.26445e-05
4.45426e-05
4.63231e-05
4.80236e-05
4.9821e-05
5.17638e-05
5.38617e-05
5.60367e-05
5.81893e-05
6.02141e-05
6.2015e-05
6.354e-05
6.45697e-05
6.51118e-05
6.58341e-05
6.59449e-05
6.58788e-05
6.56879e-05
6.54057e-05
6.49879e-05
6.42896e-05
6.30793e-05
6.11292e-05
5.84128e-05
5.53428e-05
5.27417e-05
5.1192e-05
4.9535e-05
4.48142e-05
3.87759e-05
2.05453e-05
4.40279e-06
4.36346e-06
3.08116e-05
3.85577e-05
3.493e-05
3.41404e-05
3.6507e-05
3.91826e-05
4.12518e-05
4.30671e-05
4.49465e-05
4.67272e-05
4.84945e-05
5.04043e-05
5.24907e-05
5.47362e-05
5.70493e-05
5.93205e-05
6.14364e-05
6.32916e-05
6.47981e-05
6.5797e-05
6.62988e-05
6.68429e-05
6.68267e-05
6.66136e-05
6.6325e-05
6.6041e-05
6.57594e-05
6.53536e-05
6.45521e-05
6.29944e-05
6.04213e-05
5.70407e-05
5.37886e-05
5.18326e-05
5.10346e-05
4.60002e-05
4.06587e-05
2.26536e-05
4.82065e-06
3.99645e-06
2.97746e-05
3.78164e-05
3.51133e-05
3.45367e-05
3.68702e-05
3.95066e-05
4.15482e-05
4.33714e-05
4.52343e-05
4.7025e-05
4.88488e-05
5.08441e-05
5.30359e-05
5.53873e-05
5.77997e-05
6.01576e-05
6.23406e-05
6.42342e-05
6.57401e-05
6.66982e-05
6.71528e-05
6.75184e-05
6.73669e-05
6.6994e-05
6.65735e-05
6.6236e-05
6.60303e-05
6.58751e-05
6.55026e-05
6.44744e-05
6.23173e-05
5.89265e-05
5.50764e-05
5.23179e-05
5.14655e-05
4.71313e-05
4.21641e-05
2.4694e-05
5.23544e-06
3.63748e-06
2.85952e-05
3.69818e-05
3.52149e-05
3.47697e-05
3.70686e-05
3.96764e-05
4.17369e-05
4.35751e-05
4.54183e-05
4.72119e-05
4.90742e-05
5.11224e-05
5.33728e-05
5.57803e-05
5.82468e-05
6.06541e-05
6.28752e-05
6.47869e-05
6.62845e-05
6.72109e-05
6.76217e-05
6.78349e-05
6.75598e-05
6.70393e-05
6.6482e-05
6.60654e-05
6.58862e-05
6.59245e-05
6.59415e-05
6.54671e-05
6.38557e-05
6.06805e-05
5.64325e-05
5.28644e-05
5.15796e-05
4.83741e-05
4.34374e-05
2.65695e-05
5.64763e-06
3.21761e-06
2.76566e-05
3.60718e-05
3.51973e-05
3.49026e-05
3.70782e-05
3.9735e-05
4.18189e-05
4.36656e-05
4.5491e-05
4.72862e-05
4.91468e-05
5.11892e-05
5.34445e-05
5.58653e-05
5.83492e-05
6.07678e-05
6.29865e-05
6.48811e-05
6.63471e-05
6.72484e-05
6.76111e-05
6.76258e-05
6.72231e-05
6.66464e-05
6.60699e-05
6.558e-05
6.54002e-05
6.5588e-05
6.59483e-05
6.60295e-05
6.50665e-05
6.23293e-05
5.78957e-05
5.34981e-05
5.13434e-05
4.93433e-05
4.45541e-05
2.84017e-05
6.05956e-06
2.87672e-06
2.63115e-05
3.51696e-05
3.51152e-05
3.48925e-05
3.70356e-05
3.96031e-05
4.17928e-05
4.36715e-05
4.54706e-05
4.7221e-05
4.90766e-05
5.113e-05
5.33703e-05
5.57413e-05
5.81403e-05
6.04524e-05
6.2585e-05
6.44217e-05
6.58503e-05
6.67623e-05
6.71193e-05
6.6951e-05
6.64526e-05
6.57568e-05
6.50273e-05
6.45497e-05
6.45544e-05
6.49421e-05
6.55924e-05
6.61915e-05
6.58974e-05
6.37417e-05
5.93613e-05
5.43377e-05
5.14389e-05
5.00247e-05
4.55893e-05
3.0043e-05
6.46655e-06
2.58648e-06
2.48003e-05
3.37567e-05
3.5127e-05
3.48567e-05
3.6684e-05
3.94703e-05
4.1634e-05
4.35261e-05
4.53072e-05
4.70813e-05
4.88305e-05
5.06571e-05
5.26824e-05
5.48989e-05
5.72112e-05
5.95183e-05
6.16541e-05
6.34875e-05
6.49045e-05
6.58218e-05
6.6228e-05
6.61535e-05
6.57594e-05
6.50142e-05
6.41445e-05
6.3527e-05
6.33592e-05
6.379e-05
6.48793e-05
6.60339e-05
6.63958e-05
6.49027e-05
6.07322e-05
5.51709e-05
5.15952e-05
5.03833e-05
4.65306e-05
3.16457e-05
6.87239e-06
2.32923e-06
2.31549e-05
3.21949e-05
3.50783e-05
3.47936e-05
3.6475e-05
3.88762e-05
4.13974e-05
4.33349e-05
4.5097e-05
4.66589e-05
4.83294e-05
5.02315e-05
5.22768e-05
5.44045e-05
5.65934e-05
5.87447e-05
6.07343e-05
6.24399e-05
6.37535e-05
6.45939e-05
6.49097e-05
6.48021e-05
6.44606e-05
6.39106e-05
6.33263e-05
6.28487e-05
6.25172e-05
6.28098e-05
6.393e-05
6.54052e-05
6.64892e-05
6.58403e-05
6.19702e-05
5.60134e-05
5.18349e-05
5.05747e-05
4.73504e-05
3.31528e-05
7.26972e-06
2.09509e-06
2.14254e-05
3.0358e-05
3.48865e-05
3.47423e-05
3.61488e-05
3.85822e-05
4.08043e-05
4.28938e-05
4.46128e-05
4.62654e-05
4.7957e-05
4.97008e-05
5.15518e-05
5.34905e-05
5.54648e-05
5.7388e-05
5.91736e-05
6.07276e-05
6.19511e-05
6.27783e-05
6.31685e-05
6.30933e-05
6.28142e-05
6.23244e-05
6.17479e-05
6.13427e-05
6.14522e-05
6.21738e-05
6.32934e-05
6.49194e-05
6.64742e-05
6.64122e-05
6.31409e-05
5.67165e-05
5.19831e-05
5.06831e-05
4.80732e-05
3.46208e-05
7.66125e-06
1.87579e-06
1.96426e-05
2.85446e-05
3.44892e-05
3.44872e-05
3.56346e-05
3.80755e-05
4.03292e-05
4.23065e-05
4.41055e-05
4.58019e-05
4.72969e-05
4.88292e-05
5.04671e-05
5.22117e-05
5.39981e-05
5.57504e-05
5.73836e-05
5.88038e-05
5.99388e-05
6.07377e-05
6.11746e-05
6.11463e-05
6.09626e-05
6.0615e-05
6.01741e-05
5.98786e-05
5.99583e-05
6.06779e-05
6.23223e-05
6.45567e-05
6.64027e-05
6.6681e-05
6.39707e-05
5.72977e-05
5.20351e-05
5.07173e-05
4.87412e-05
3.59976e-05
8.03933e-06
1.6679e-06
1.7847e-05
2.67905e-05
3.35352e-05
3.46377e-05
3.52411e-05
3.73058e-05
3.97901e-05
4.17874e-05
4.35728e-05
4.50925e-05
4.65345e-05
4.79381e-05
4.93849e-05
5.09021e-05
5.24578e-05
5.39928e-05
5.54358e-05
5.67107e-05
5.77537e-05
5.85216e-05
5.90295e-05
5.90626e-05
5.89988e-05
5.88374e-05
5.85826e-05
5.84687e-05
5.87108e-05
5.95603e-05
6.12017e-05
6.35639e-05
6.59739e-05
6.70083e-05
6.44244e-05
5.77634e-05
5.19098e-05
5.04782e-05
4.93299e-05
3.73219e-05
8.40514e-06
1.46507e-06
1.60322e-05
2.50229e-05
3.19084e-05
3.46304e-05
3.49953e-05
3.65568e-05
3.8968e-05
4.11502e-05
4.28847e-05
4.43447e-05
4.56907e-05
4.69656e-05
4.82349e-05
4.95366e-05
5.08645e-05
5.21815e-05
5.34343e-05
5.45636e-05
5.55168e-05
5.62506e-05
5.68478e-05
5.69486e-05
5.70171e-05
5.70671e-05
5.70233e-05
5.71174e-05
5.7541e-05
5.85376e-05
6.03259e-05
6.28874e-05
6.55221e-05
6.68946e-05
6.51472e-05
5.8011e-05
5.16631e-05
5.01485e-05
4.97915e-05
3.85116e-05
8.75119e-06
1.26674e-06
1.42494e-05
2.31764e-05
3.00964e-05
3.44731e-05
3.47262e-05
3.58853e-05
3.79046e-05
4.01834e-05
4.20214e-05
4.34973e-05
4.47773e-05
4.59423e-05
4.70579e-05
4.81693e-05
4.92896e-05
5.04036e-05
5.14779e-05
5.24701e-05
5.33421e-05
5.40406e-05
5.47375e-05
5.49063e-05
5.51089e-05
5.53804e-05
5.55561e-05
5.58698e-05
5.64866e-05
5.76334e-05
5.9515e-05
6.21668e-05
6.49412e-05
6.65169e-05
6.51099e-05
5.806e-05
5.12627e-05
4.95631e-05
5.01925e-05
3.96489e-05
9.08009e-06
1.06636e-06
1.24885e-05
2.16973e-05
2.77835e-05
3.37909e-05
3.47241e-05
3.54104e-05
3.70107e-05
3.90697e-05
4.10015e-05
4.25354e-05
4.37893e-05
4.4874e-05
4.58685e-05
4.68266e-05
4.77757e-05
4.87187e-05
4.96403e-05
5.05151e-05
5.13178e-05
5.19938e-05
5.27794e-05
5.30125e-05
5.33492e-05
5.38381e-05
5.42235e-05
5.47508e-05
5.55551e-05
5.68451e-05
5.87859e-05
6.14463e-05
6.41957e-05
6.57826e-05
6.45487e-05
5.76584e-05
5.05459e-05
4.86543e-05
5.04675e-05
4.06149e-05
9.38413e-06
8.86229e-07
1.10081e-05
2.04299e-05
2.55094e-05
3.18703e-05
3.46729e-05
3.51537e-05
3.62846e-05
3.79736e-05
3.98453e-05
4.14624e-05
4.27498e-05
4.38028e-05
4.47158e-05
4.55584e-05
4.63731e-05
4.71793e-05
4.79761e-05
4.87601e-05
4.94893e-05
5.02215e-05
5.09637e-05
5.13023e-05
5.1819e-05
5.24588e-05
5.30312e-05
5.37507e-05
5.47161e-05
5.61225e-05
5.80622e-05
6.0625e-05
6.31659e-05
6.45777e-05
6.32524e-05
5.66877e-05
4.94298e-05
4.74707e-05
5.06221e-05
4.14794e-05
9.66987e-06
7.34013e-07
9.73854e-06
1.95226e-05
2.35977e-05
2.96173e-05
3.40858e-05
3.50395e-05
3.5882e-05
3.71664e-05
3.87323e-05
4.02934e-05
4.15977e-05
4.26559e-05
4.35394e-05
4.4321e-05
4.50538e-05
4.57725e-05
4.64802e-05
4.72156e-05
4.78566e-05
4.87384e-05
4.93072e-05
4.97762e-05
5.05e-05
5.1224e-05
5.19426e-05
5.28138e-05
5.38864e-05
5.53532e-05
5.71937e-05
5.95289e-05
6.16412e-05
6.26908e-05
6.10805e-05
5.49668e-05
4.81368e-05
4.60225e-05
5.05132e-05
4.21062e-05
9.93318e-06
5.97902e-07
8.69551e-06
1.89413e-05
2.22202e-05
2.7428e-05
3.24894e-05
3.46304e-05
3.56908e-05
3.67675e-05
3.80484e-05
3.94021e-05
4.06298e-05
4.16545e-05
4.25032e-05
4.32347e-05
4.39011e-05
4.45522e-05
4.51847e-05
4.58781e-05
4.6464e-05
4.74237e-05
4.78392e-05
4.8444e-05
4.92951e-05
5.00584e-05
5.08604e-05
5.1817e-05
5.2902e-05
5.433e-05
5.59148e-05
5.78601e-05
5.92984e-05
5.98275e-05
5.77793e-05
5.22118e-05
4.61698e-05
4.45659e-05
5.01704e-05
4.23549e-05
1.0188e-05
4.73136e-07
7.93547e-06
1.84586e-05
2.1768e-05
2.57788e-05
3.07031e-05
3.39785e-05
3.54439e-05
3.65577e-05
3.76419e-05
3.87594e-05
3.9822e-05
4.07575e-05
4.15498e-05
4.22373e-05
4.28594e-05
4.34625e-05
4.40523e-05
4.46811e-05
4.53039e-05
4.61356e-05
4.65644e-05
4.72375e-05
4.80551e-05
4.8824e-05
4.96026e-05
5.05307e-05
5.14673e-05
5.2695e-05
5.3796e-05
5.51661e-05
5.56992e-05
5.5635e-05
5.31495e-05
4.84357e-05
4.37578e-05
4.33613e-05
4.95239e-05
4.19017e-05
1.04451e-05
4.08832e-07
7.78916e-06
1.77547e-05
2.19117e-05
2.41667e-05
2.8808e-05
3.30378e-05
3.54529e-05
3.68436e-05
3.79627e-05
3.89557e-05
3.98561e-05
4.06389e-05
4.13135e-05
4.18737e-05
4.23639e-05
4.28532e-05
4.33142e-05
4.38561e-05
4.4287e-05
4.5094e-05
4.54118e-05
4.59237e-05
4.66085e-05
4.72416e-05
4.78131e-05
4.85223e-05
4.90662e-05
4.98669e-05
5.02182e-05
5.08611e-05
5.03874e-05
4.98429e-05
4.71904e-05
4.38085e-05
4.05483e-05
4.15253e-05
4.86721e-05
4.13817e-05
1.06274e-05
4.21261e-07
8.60289e-06
1.70416e-05
2.19774e-05
2.4352e-05
2.74733e-05
3.13965e-05
3.4936e-05
3.71655e-05
3.84552e-05
3.94297e-05
4.01953e-05
4.08228e-05
4.13191e-05
4.17557e-05
4.21329e-05
4.25057e-05
4.28122e-05
4.31223e-05
4.33562e-05
4.36633e-05
4.39835e-05
4.412e-05
4.43455e-05
4.46717e-05
4.47913e-05
4.50293e-05
4.49199e-05
4.5079e-05
4.45522e-05
4.4504e-05
4.32865e-05
4.26788e-05
4.05045e-05
3.90235e-05
3.79396e-05
4.06113e-05
4.76629e-05
4.06348e-05
1.06911e-05
5.93897e-07
1.09246e-05
1.75853e-05
2.24286e-05
2.52279e-05
2.82311e-05
3.14803e-05
3.47382e-05
3.78489e-05
4.0186e-05
4.14546e-05
4.23201e-05
4.28779e-05
4.32986e-05
4.34377e-05
4.33419e-05
4.31116e-05
4.2781e-05
4.24574e-05
4.20105e-05
4.17259e-05
4.11126e-05
4.09192e-05
4.06124e-05
4.01647e-05
3.96717e-05
3.92799e-05
3.85272e-05
3.81039e-05
3.7098e-05
3.6808e-05
3.56914e-05
3.57058e-05
3.48543e-05
3.55287e-05
3.6815e-05
4.07468e-05
4.61166e-05
3.84324e-05
1.06471e-05
9.55649e-07
1.45556e-05
1.98673e-05
2.39201e-05
2.70638e-05
3.02733e-05
3.36843e-05
3.62862e-05
3.89116e-05
4.14289e-05
4.33482e-05
4.42176e-05
4.44814e-05
4.42601e-05
4.37178e-05
4.29168e-05
4.1917e-05
4.0795e-05
3.97531e-05
3.86713e-05
3.77451e-05
3.65101e-05
3.58947e-05
3.49676e-05
3.39418e-05
3.30729e-05
3.24779e-05
3.18087e-05
3.14819e-05
3.10392e-05
3.12958e-05
3.127e-05
3.24151e-05
3.32024e-05
3.56982e-05
3.81831e-05
4.30013e-05
4.39979e-05
3.65614e-05
1.03121e-05
1.59027e-06
1.88216e-05
2.21954e-05
2.63577e-05
2.99286e-05
3.31207e-05
3.60979e-05
3.83278e-05
3.9342e-05
4.05919e-05
4.15084e-05
4.16859e-05
4.14149e-05
4.0838e-05
4.00046e-05
3.90196e-05
3.79737e-05
3.68981e-05
3.56503e-05
3.44798e-05
3.37295e-05
3.27476e-05
3.18275e-05
3.12851e-05
3.08174e-05
3.06283e-05
3.06004e-05
3.08302e-05
3.13787e-05
3.20841e-05
3.32415e-05
3.43591e-05
3.642e-05
3.80962e-05
4.12507e-05
4.3486e-05
4.59198e-05
4.2375e-05
3.31183e-05
9.70796e-06
2.67668e-06
2.23527e-05
2.50372e-05
2.9477e-05
3.2634e-05
3.49893e-05
3.67633e-05
3.79862e-05
3.82389e-05
3.86152e-05
3.88134e-05
3.88467e-05
3.86481e-05
3.8443e-05
3.79719e-05
3.75951e-05
3.73306e-05
3.6937e-05
3.66001e-05
3.63451e-05
3.61904e-05
3.62476e-05
3.63253e-05
3.66482e-05
3.6994e-05
3.76041e-05
3.82398e-05
3.91096e-05
4.01033e-05
4.11498e-05
4.25773e-05
4.36616e-05
4.56497e-05
4.6262e-05
4.88315e-05
4.76724e-05
4.60526e-05
4.00547e-05
2.5039e-05
8.46191e-06
1.81499e-06
2.8026e-06
3.63678e-06
4.49876e-06
5.28321e-06
5.9909e-06
6.58928e-06
7.08339e-06
7.42695e-06
7.6489e-06
7.78323e-06
7.83075e-06
7.81658e-06
7.77637e-06
7.69478e-06
7.59414e-06
7.48673e-06
7.37827e-06
7.26976e-06
7.17246e-06
7.08062e-06
7.00773e-06
6.94456e-06
6.90436e-06
6.87712e-06
6.8803e-06
6.89912e-06
6.92795e-06
7.01561e-06
7.0799e-06
7.23301e-06
7.3407e-06
7.59947e-06
7.79153e-06
8.23283e-06
8.51086e-06
8.98064e-06
9.02039e-06
8.71504e-06
7.28219e-06
)
;

boundaryField
{
    movingWall
    {
        type            nutkWallFunction;
        Cmu             0.09;
        kappa           0.41;
        E               9.8;
        value           uniform 0;
    }
    fixedWalls
    {
        type            nutkWallFunction;
        Cmu             0.09;
        kappa           0.41;
        E               9.8;
        value           uniform 0;
    }
    frontAndBack
    {
        type            empty;
    }
}


// ************************************************************************* //
