/*--------------------------------*- C++ -*----------------------------------*\
  =========                 |
  \\      /  F ield         | OpenFOAM: The Open Source CFD Toolbox
   \\    /   O peration     | Website:  https://openfoam.org
    \\  /    A nd           | Version:  12
     \\/     M anipulation  |
\*---------------------------------------------------------------------------*/
FoamFile
{
    format      ascii;
    class       volScalarField;
    location    "7.5";
    object      p;
}
// * * * * * * * * * * * * * * * * * * * * * * * * * * * * * * * * * * * * * //

dimensions      [0 2 -2 0 0 0 0];

internalField   nonuniform List<scalar> 
1600
(
1.21165e-08
-2.36583e-05
-0.000107637
-0.000226107
-0.000334175
-0.000418095
-0.000494901
-0.000598668
-0.000738551
-0.000914468
-0.00113627
-0.00146219
-0.00187602
-0.00207047
-0.00229691
-0.0028637
-0.00372009
-0.00470241
-0.00564539
-0.006414
-0.00691139
-0.00707044
-0.00683679
-0.00616408
-0.00508148
-0.00360699
-0.00174827
0.000433161
0.0028213
0.00519907
0.00728533
0.00876624
0.00941792
0.00921067
0.00822436
0.00719853
0.00655444
0.00644352
0.00654348
0.0065906
-1.75991e-05
-6.6372e-05
-0.000159802
-0.000273847
-0.000353608
-0.00039497
-0.000434035
-0.000512907
-0.000638517
-0.000786532
-0.000926719
-0.00114756
-0.00156557
-0.00210535
-0.00272417
-0.00350269
-0.00442888
-0.00541103
-0.00632576
-0.00706208
-0.00753574
-0.00768948
-0.0074806
-0.00688796
-0.00589434
-0.00449042
-0.00271064
-0.00061005
0.00169065
0.00401779
0.00611963
0.00769334
0.00849466
0.00844244
0.00765752
0.00665908
0.00615262
0.00622054
0.00639544
0.00647884
-4.3291e-05
-0.000136739
-0.000258279
-0.000366566
-0.000409419
-0.000396701
-0.00038665
-0.000410127
-0.00049256
-0.000697094
-0.0010531
-0.00153136
-0.00215507
-0.00292838
-0.00383088
-0.00481245
-0.00581831
-0.00678209
-0.00763115
-0.00829812
-0.00872392
-0.00885495
-0.00865847
-0.00811667
-0.00720594
-0.00592125
-0.00428758
-0.00235318
-0.000204248
0.0020274
0.00413299
0.00586679
0.0069822
0.0073297
0.00699304
0.00636581
0.00604216
0.00609655
0.00626222
0.00631704
-4.90359e-05
-0.000187951
-0.000349371
-0.000444905
-0.000446269
-0.000400735
-0.000382939
-0.000440093
-0.000625203
-0.00102339
-0.00166738
-0.00249385
-0.00342791
-0.00443943
-0.00550546
-0.00657532
-0.00759657
-0.00852339
-0.00931261
-0.00992118
-0.0103004
-0.0104038
-0.010209
-0.00970406
-0.00887619
-0.00772535
-0.00626861
-0.00453974
-0.00259601
-0.000522858
0.00153744
0.00340352
0.00486144
0.00575182
0.00609599
0.00608783
0.00609779
0.0061317
0.00620501
0.00620297
7.97726e-05
-0.000124869
-0.000306224
-0.000400628
-0.000413971
-0.000406601
-0.000466923
-0.000683058
-0.0011311
-0.00185268
-0.00281634
-0.0039281
-0.00509927
-0.00627845
-0.0074301
-0.00852676
-0.009541
-0.0104458
-0.0111949
-0.0117456
-0.0120643
-0.0121376
-0.0119507
-0.0114893
-0.0107482
-0.00973027
-0.00844523
-0.00691302
-0.0051711
-0.00328273
-0.00133642
0.000555418
0.00226799
0.0036897
0.00476754
0.00551979
0.00601139
0.00624364
0.00619924
0.00612828
0.000415525
0.000134818
-7.16919e-05
-0.000205658
-0.00029792
-0.000428766
-0.000705241
-0.00122347
-0.00202821
-0.00309126
-0.00432816
-0.00564181
-0.00696127
-0.00823579
-0.00943858
-0.01055
-0.0115401
-0.0123801
-0.0130436
-0.013517
-0.0137838
-0.0138338
-0.0136582
-0.0132444
-0.0125914
-0.0117026
-0.0105842
-0.00924769
-0.00771258
-0.00601193
-0.00419493
-0.00232809
-0.000482793
0.00129886
0.00297102
0.00443435
0.00552263
0.00614315
0.00613369
0.00601366
0.000933563
0.000599494
0.000334189
0.000107531
-0.000147238
-0.000532536
-0.00114891
-0.00205222
-0.00322157
-0.00457843
-0.00602128
-0.00747125
-0.00887309
-0.0101869
-0.0113897
-0.0124621
-0.0133885
-0.0141539
-0.0147465
-0.0151592
-0.0153835
-0.0154136
-0.0152443
-0.0148696
-0.0142899
-0.0135083
-0.0125302
-0.011363
-0.0100168
-0.00850543
-0.00684781
-0.00506711
-0.00318214
-0.00120267
0.000841518
0.00284408
0.00454621
0.00566389
0.00606369
0.00583847
0.00156109
0.00118283
0.000809946
0.00043279
-6.67394e-05
-0.000794909
-0.00181073
-0.00309947
-0.00458564
-0.00616502
-0.00774886
-0.00927725
-0.0107071
-0.0120117
-0.0131764
-0.0141911
-0.0150506
-0.0157494
-0.016283
-0.0166475
-0.0168389
-0.0168543
-0.0166912
-0.0163485
-0.0158271
-0.0151304
-0.0142629
-0.01323
-0.0120365
-0.0106863
-0.00918109
-0.00751785
-0.0056834
-0.00365357
-0.00142277
0.000920866
0.00312526
0.00483983
0.00579195
0.00547403
0.00212658
0.00167347
0.00118547
0.000622481
-0.000172605
-0.00127509
-0.00267243
-0.00429188
-0.00601742
-0.00774864
-0.00941587
-0.0109745
-0.0123952
-0.0136646
-0.0147774
-0.0157327
-0.0165312
-0.017173
-0.0176575
-0.0179838
-0.0181508
-0.0181573
-0.0180025
-0.0176871
-0.0172129
-0.0165834
-0.0158027
-0.014875
-0.0138029
-0.0125847
-0.0112129
-0.00967043
-0.00792828
-0.00594379
-0.003676
-0.00115674
0.00140074
0.00363607
0.00507675
0.00518477
0.00245553
0.00193484
0.00132259
0.000553409
-0.000544141
-0.00199151
-0.00370431
-0.00556487
-0.00745105
-0.00927103
-0.0109733
-0.0125269
-0.0139164
-0.0151393
-0.0161983
-0.0170982
-0.017844
-0.0184387
-0.0188846
-0.0191825
-0.0193326
-0.0193352
-0.0191902
-0.0188989
-0.0184634
-0.0178871
-0.0171739
-0.0163274
-0.0153496
-0.0142375
-0.0129803
-0.011556
-0.00992871
-0.00804709
-0.00584572
-0.00329756
-0.000564561
0.00199619
0.00396353
0.00502327
0.00243565
0.00186166
0.00113093
0.000165287
-0.00120229
-0.00292041
-0.00486061
-0.00687126
-0.00884685
-0.0107015
-0.0124011
-0.0139257
-0.0152718
-0.0164448
-0.0174526
-0.0183039
-0.0190059
-0.0195637
-0.0199806
-0.0202585
-0.0203985
-0.0204012
-0.0202672
-0.0199979
-0.0195952
-0.0190623
-0.0184026
-0.0176197
-0.0167154
-0.0156875
-0.0145259
-0.0132093
-0.0117024
-0.00995376
-0.00789056
-0.00544059
-0.00268302
2.3276e-06
0.00232626
0.00393211
0.00203792
0.00142184
0.00058877
-0.000540944
-0.00210946
-0.00401452
-0.00608462
-0.00817413
-0.0101768
-0.0120238
-0.0136932
-0.0151739
-0.0164711
-0.0175948
-0.0185564
-0.0193665
-0.0200333
-0.0205627
-0.0209585
-0.0212231
-0.0213579
-0.0213636
-0.0212413
-0.0209921
-0.020618
-0.0201216
-0.0195059
-0.0187744
-0.0179294
-0.01697
-0.0158891
-0.0146692
-0.0132791
-0.011672
-0.0097813
-0.00751657
-0.0048598
-0.00219925
0.000157521
0.00184044
0.00128667
0.000647639
-0.000257788
-0.0015103
-0.00320144
-0.00520766
-0.00732662
-0.00943445
-0.0114185
-0.0132285
-0.01485
-0.016279
-0.017526
-0.0186034
-0.0195244
-0.0203001
-0.0209388
-0.0214465
-0.021827
-0.0220829
-0.0222156
-0.0222261
-0.0221155
-0.0218849
-0.0215361
-0.0210712
-0.0204929
-0.0198046
-0.019009
-0.0181071
-0.0170954
-0.0159617
-0.0146814
-0.0132149
-0.0115051
-0.00946763
-0.00703665
-0.00448822
-0.00230804
-0.000775626
0.000260747
-0.000379151
-0.00132325
-0.00264951
-0.00440139
-0.00642982
-0.00854099
-0.0106203
-0.012555
-0.0143097
-0.0158738
-0.0172485
-0.0184468
-0.0194821
-0.0203679
-0.0211148
-0.0217309
-0.0222218
-0.0225911
-0.0228413
-0.0229738
-0.0229898
-0.0228905
-0.0226769
-0.0223505
-0.0219132
-0.0213676
-0.0207166
-0.0199638
-0.0191117
-0.0181604
-0.0171037
-0.0159248
-0.0145924
-0.0130591
-0.0112582
-0.00911706
-0.00675883
-0.0048445
-0.00354988
-0.000929768
-0.00155618
-0.00251117
-0.00386132
-0.00561753
-0.00761484
-0.0096867
-0.0117057
-0.0135732
-0.0152632
-0.0167669
-0.0180885
-0.0192414
-0.0202392
-0.0210945
-0.0218174
-0.022415
-0.0228925
-0.0232532
-0.0234995
-0.0236329
-0.0236545
-0.0235655
-0.0233671
-0.0230606
-0.0226477
-0.0221307
-0.0215127
-0.0207974
-0.0199892
-0.019091
-0.0181024
-0.0170143
-0.0158052
-0.0144387
-0.012865
-0.0110159
-0.0089237
-0.00726843
-0.00620615
-0.0021756
-0.00277465
-0.00372025
-0.00505638
-0.00677761
-0.00871496
-0.010725
-0.0126685
-0.0144626
-0.016086
-0.0175309
-0.0188028
-0.0199148
-0.0208797
-0.021709
-0.0224116
-0.022994
-0.0234607
-0.0238147
-0.0240582
-0.0241927
-0.0242194
-0.0241396
-0.0239544
-0.0236652
-0.0232735
-0.0227817
-0.0221926
-0.0215104
-0.0207407
-0.0198893
-0.0189601
-0.0179515
-0.0168511
-0.0156325
-0.0142561
-0.0126716
-0.0109059
-0.00948853
-0.00859539
-0.00337331
-0.003938
-0.00485722
-0.00616132
-0.00782704
-0.00969128
-0.0116276
-0.0134923
-0.0152146
-0.0167748
-0.0181659
-0.0193936
-0.02047
-0.0214067
-0.0222139
-0.0228996
-0.0234694
-0.0239273
-0.024276
-0.0245174
-0.0246531
-0.0246842
-0.0246121
-0.024438
-0.0241633
-0.0237896
-0.0233191
-0.0227549
-0.0221014
-0.021365
-0.0205537
-0.0196755
-0.0187351
-0.0177281
-0.0166358
-0.015425
-0.0140663
-0.012602
-0.0114067
-0.0106496
-0.00444558
-0.00496746
-0.0058502
-0.00711521
-0.0087214
-0.0105126
-0.0123745
-0.014165
-0.0158223
-0.0173266
-0.0186711
-0.0198614
-0.0209079
-0.0218212
-0.0226104
-0.0232824
-0.0238422
-0.0242931
-0.0246375
-0.0248773
-0.0250139
-0.0250486
-0.0249825
-0.0248172
-0.024554
-0.0241948
-0.0237416
-0.0231978
-0.0225681
-0.0218594
-0.0210813
-0.0202451
-0.0193607
-0.0184306
-0.0174431
-0.0163715
-0.0152039
-0.0139916
-0.0129902
-0.0123386
-0.00532925
-0.00581407
-0.00665411
-0.00787757
-0.00942792
-0.011156
-0.0129515
-0.014678
-0.0162802
-0.0177382
-0.0190451
-0.0202053
-0.0212283
-0.0221235
-0.0228988
-0.0235603
-0.0241125
-0.0245582
-0.0248996
-0.0251383
-0.0252756
-0.0253127
-0.0252511
-0.025092
-0.0248372
-0.0244884
-0.0240482
-0.0235198
-0.0229082
-0.022221
-0.0214688
-0.0206651
-0.0198241
-0.0189542
-0.0180504
-0.0170943
-0.0160824
-0.0150588
-0.0142222
-0.0136598
-0.00599711
-0.00643528
-0.00723883
-0.00842659
-0.00992896
-0.0116072
-0.013349
-0.0150244
-0.0165838
-0.0180068
-0.0192857
-0.020424
-0.0214303
-0.0223127
-0.0230785
-0.0237332
-0.0242804
-0.0247229
-0.0250625
-0.0253007
-0.0254385
-0.0254773
-0.0254182
-0.0252628
-0.0250129
-0.0246705
-0.0242381
-0.0237195
-0.0231198
-0.022447
-0.0217125
-0.0209316
-0.0201213
-0.019295
-0.0184547
-0.0175901
-0.0167012
-0.0158233
-0.0151149
-0.0146222
-0.00642063
-0.00682012
-0.00759875
-0.0087568
-0.0102176
-0.0118601
-0.0135616
-0.0151999
-0.0167298
-0.0181294
-0.0193906
-0.0205154
-0.0215121
-0.0223877
-0.0231488
-0.0238004
-0.0243458
-0.0247874
-0.0251268
-0.0253651
-0.0255035
-0.0255429
-0.0254847
-0.0253304
-0.0250818
-0.0247412
-0.0243114
-0.0237964
-0.0232016
-0.0225352
-0.0218096
-0.0210408
-0.0202486
-0.0194502
-0.0186539
-0.0178573
-0.0170621
-0.0162914
-0.0156802
-0.0152419
-0.00658138
-0.00696521
-0.00773517
-0.00887287
-0.0102989
-0.0119141
-0.0135863
-0.0152022
-0.0167157
-0.0181034
-0.0193567
-0.0204774
-0.0214718
-0.0223468
-0.0231084
-0.0237612
-0.0243083
-0.0247516
-0.0250926
-0.0253323
-0.0254714
-0.0255109
-0.0254518
-0.0252958
-0.0250448
-0.0247012
-0.0242682
-0.02375
-0.0231524
-0.0224842
-0.0217578
-0.0209899
-0.0202031
-0.0194174
-0.0186463
-0.0178954
-0.0171709
-0.0164815
-0.0159407
-0.0155353
-0.00651347
-0.00688761
-0.00765534
-0.00878265
-0.0101826
-0.0117732
-0.0134303
-0.0150345
-0.0165414
-0.0179271
-0.0191819
-0.0203067
-0.0213066
-0.0221877
-0.0229556
-0.0236146
-0.0241673
-0.0246156
-0.0249605
-0.0252028
-0.0253431
-0.025382
-0.0253208
-0.0251606
-0.0249034
-0.0245518
-0.0241093
-0.0235803
-0.0229715
-0.0222919
-0.0215545
-0.0207772
-0.0199828
-0.0191945
-0.0184303
-0.0177034
-0.017028
-0.016397
-0.0159199
-0.0155166
-0.00625935
-0.00662205
-0.00738663
-0.00850843
-0.00988707
-0.0114484
-0.013097
-0.0146977
-0.016206
-0.0175981
-0.0188632
-0.0200003
-0.0210134
-0.0219077
-0.0226883
-0.0233589
-0.0239219
-0.0243789
-0.0247306
-0.0249775
-0.0251199
-0.0251582
-0.0250933
-0.0249265
-0.0246595
-0.0242949
-0.0238363
-0.0232889
-0.0226596
-0.0219583
-0.021199
-0.0204005
-0.0195859
-0.0187803
-0.018006
-0.0172841
-0.016638
-0.0160385
-0.0156337
-0.0151978
-0.00586544
-0.00621428
-0.00696841
-0.0080785
-0.00943629
-0.010962
-0.0125918
-0.0141928
-0.0157084
-0.0171137
-0.0183965
-0.0195539
-0.0205882
-0.0215035
-0.0223038
-0.0229923
-0.023571
-0.0240411
-0.024403
-0.0246569
-0.0248027
-0.0248405
-0.024771
-0.0245951
-0.0243146
-0.023932
-0.0234511
-0.0228773
-0.0222182
-0.0214845
-0.0206914
-0.0198588
-0.0190112
-0.0181746
-0.0173751
-0.0166442
-0.0160119
-0.0154073
-0.0150551
-0.0145966
-0.00539287
-0.00572126
-0.00644788
-0.00752611
-0.00885124
-0.0103379
-0.0119303
-0.0135251
-0.0150484
-0.0164707
-0.0177773
-0.0189625
-0.0200263
-0.0209708
-0.0217988
-0.0225123
-0.023113
-0.0236015
-0.0239778
-0.0242416
-0.0243926
-0.0244306
-0.0243557
-0.0241687
-0.0238711
-0.0234655
-0.0229556
-0.0223473
-0.0216488
-0.020872
-0.0200331
-0.0191534
-0.0182591
-0.0173775
-0.0165396
-0.0157882
-0.0151596
-0.014516
-0.0142119
-0.0137302
-0.0049165
-0.00520842
-0.00587648
-0.00689064
-0.00815566
-0.00958847
-0.0111294
-0.0127023
-0.0142267
-0.0156658
-0.0170003
-0.0182204
-0.0193221
-0.0203047
-0.021169
-0.0219159
-0.0225459
-0.023059
-0.0234547
-0.0237323
-0.0238911
-0.0239303
-0.0238497
-0.0236499
-0.0233321
-0.0228985
-0.0223532
-0.0217022
-0.0209547
-0.0201235
-0.0192267
-0.018287
-0.0173322
-0.0163913
-0.0155006
-0.014712
-0.0140601
-0.0133901
-0.0131478
-0.0126187
-0.00451248
-0.00473549
-0.00529949
-0.00620954
-0.00737961
-0.0087294
-0.0102008
-0.0117309
-0.0132441
-0.0146959
-0.0160604
-0.0173212
-0.0184691
-0.0194995
-0.02041
-0.0211996
-0.0218674
-0.0224125
-0.0228337
-0.0231297
-0.0232994
-0.0233417
-0.0232558
-0.023042
-0.0227012
-0.0222354
-0.0216487
-0.0209473
-0.0201413
-0.0192448
-0.0182778
-0.017265
-0.0162362
-0.0152217
-0.0142633
-0.0134209
-0.0127313
-0.0120236
-0.0118722
-0.0112534
-0.00423262
-0.00433649
-0.00474774
-0.00551534
-0.00655421
-0.00778315
-0.00915472
-0.010617
-0.0121017
-0.0135585
-0.0149524
-0.0162589
-0.0174614
-0.0185496
-0.0195172
-0.02036
-0.0210753
-0.0216609
-0.0221148
-0.022435
-0.0226199
-0.0226678
-0.0225778
-0.0223496
-0.0219837
-0.0214822
-0.0208487
-0.0200902
-0.0192172
-0.0182454
-0.0171966
-0.0160978
-0.0149811
-0.0138788
-0.0128376
-0.0119243
-0.0111776
-0.0104054
-0.0103834
-0.00959458
-0.00406015
-0.0039912
-0.00423826
-0.00483714
-0.00570545
-0.00677137
-0.00800465
-0.0093686
-0.0108033
-0.0122534
-0.0136738
-0.0150294
-0.0162945
-0.017451
-0.018487
-0.0193946
-0.0201684
-0.0208044
-0.0212992
-0.0216505
-0.0218558
-0.0219131
-0.0218212
-0.0215791
-0.0211874
-0.0206476
-0.0199637
-0.0191426
-0.0181957
-0.01714
-0.0159993
-0.0148026
-0.0135846
-0.0123802
-0.0112413
-0.0102392
-0.00941427
-0.00855967
-0.00865562
-0.00755706
-0.00385082
-0.00365682
-0.00378592
-0.00419702
-0.00485141
-0.00571039
-0.00676578
-0.00799853
-0.00935832
-0.0107863
-0.0122272
-0.0136335
-0.0149679
-0.0162029
-0.0173193
-0.018304
-0.019148
-0.019845
-0.0203904
-0.0207806
-0.0210127
-0.0210844
-0.0209942
-0.0207404
-0.0203235
-0.0197451
-0.019009
-0.0181224
-0.0170972
-0.0159516
-0.0147111
-0.0134063
-0.0120746
-0.0107538
-0.0095021
-0.00839135
-0.00746668
-0.00651976
-0.00664691
-0.00506713
-0.00354839
-0.0033667
-0.00340667
-0.00360527
-0.0040046
-0.00461439
-0.00545389
-0.00652328
-0.00778301
-0.00917216
-0.0106251
-0.0120812
-0.0134898
-0.0148122
-0.0160201
-0.017094
-0.0180202
-0.0187896
-0.0193957
-0.0198338
-0.0201005
-0.0201929
-0.0201091
-0.019848
-0.019409
-0.0187941
-0.0180073
-0.0170557
-0.0159517
-0.014714
-0.013369
-0.0119485
-0.0104925
-0.0090414
-0.00766034
-0.00641908
-0.00536995
-0.00430681
-0.00433245
-0.00212955
-0.00328832
-0.0031672
-0.00310495
-0.00306808
-0.0031761
-0.0034975
-0.00408712
-0.00496592
-0.00610433
-0.0074392
-0.00889496
-0.0103975
-0.0118826
-0.0132986
-0.0146071
-0.0157807
-0.0168003
-0.017653
-0.01833
-0.0188255
-0.0191352
-0.0192562
-0.0191864
-0.0189244
-0.018469
-0.0178235
-0.0169917
-0.0159804
-0.014802
-0.0134749
-0.0120254
-0.010485
-0.00889548
-0.00729947
-0.00576891
-0.00436793
-0.00315393
-0.00190994
-0.00168778
0.00114634
-0.00309561
-0.00303659
-0.00286303
-0.00258432
-0.00237315
-0.002373
-0.00268613
-0.00335667
-0.0043616
-0.00563265
-0.00708384
-0.00862847
-0.0101888
-0.0117008
-0.0131152
-0.0143957
-0.0155172
-0.0164623
-0.0172195
-0.0177814
-0.0181431
-0.0183015
-0.0182543
-0.0180013
-0.0175397
-0.0168738
-0.0160078
-0.014948
-0.013706
-0.0122982
-0.0107494
-0.00908825
-0.00735671
-0.00559665
-0.00388391
-0.00227082
-0.000821154
0.00070297
0.00130044
0.00475007
-0.00289956
-0.00291682
-0.00263582
-0.00212371
-0.00158306
-0.00125004
-0.00127998
-0.00173923
-0.00260976
-0.00381654
-0.00526119
-0.00684448
-0.00847677
-0.0100827
-0.0116027
-0.0129922
-0.0142192
-0.0152619
-0.0161058
-0.0167415
-0.0171634
-0.0173681
-0.0173532
-0.0171183
-0.0166669
-0.0159963
-0.0151123
-0.0140212
-0.0127324
-0.0112583
-0.00961977
-0.00783876
-0.00595364
-0.00399778
-0.00204334
-0.000119417
0.0017038
0.00368582
0.0048519
0.00907105
-0.00264611
-0.00271944
-0.00236595
-0.00163555
-0.000782054
-0.000139999
9.07876e-05
-0.000176003
-0.000925392
-0.00207541
-0.00351681
-0.0051384
-0.00683895
-0.00853325
-0.0101533
-0.0116472
-0.0129773
-0.0141171
-0.0150493
-0.0157629
-0.016251
-0.0165099
-0.0165381
-0.0163352
-0.0159033
-0.0152438
-0.0143598
-0.0132569
-0.0119409
-0.0104174
-0.00870086
-0.00680017
-0.00474328
-0.00253979
-0.000242287
0.00217011
0.00463345
0.00744401
0.00969432
0.0155034
-0.00233719
-0.00241753
-0.00198642
-0.00107732
3.93856e-05
0.000922823
0.00135855
0.00124423
0.000590286
-0.000514978
-0.00195402
-0.00360819
-0.00536796
-0.00713972
-0.00884858
-0.0104371
-0.0118623
-0.0130939
-0.0141117
-0.0149031
-0.0154602
-0.0157783
-0.0158564
-0.0156944
-0.0152939
-0.0146555
-0.0137827
-0.0126811
-0.0113522
-0.00979391
-0.00801123
-0.00599138
-0.00374134
-0.00122187
0.00155992
0.00473606
0.00828763
0.0127044
0.0174
0.0269066
-0.0021206
-0.0021602
-0.00157568
-0.00047082
0.000816349
0.00189055
0.00245315
0.00243485
0.00184275
0.000761791
-0.000686381
-0.00237586
-0.00419066
-0.0060304
-0.00781436
-0.00948156
-0.0109856
-0.0122933
-0.0133831
-0.0142408
-0.0148579
-0.0152292
-0.0153535
-0.0152309
-0.0148634
-0.0142516
-0.013397
-0.012293
-0.0109498
-0.00936229
-0.00752219
-0.00538929
-0.00293961
-5.54159e-05
0.00333782
0.00759508
0.0128323
0.0202498
0.0299426
0.046457
-0.00306074
-0.00249119
-0.00143016
-6.65429e-06
0.00147742
0.00265919
0.00329619
0.00332396
0.00276295
0.00170037
0.000254751
-0.00145061
-0.00329881
-0.00518679
-0.0070287
-0.00875876
-0.0103265
-0.0116963
-0.0128443
-0.0137549
-0.0144188
-0.0148319
-0.0149918
-0.0148989
-0.0145544
-0.013959
-0.0131137
-0.0120171
-0.01067
-0.00905473
-0.00716377
-0.00495085
-0.00234235
0.00082534
0.00483145
0.0103067
0.0179163
0.0301619
0.0479528
0.0746097
-0.00517828
-0.00163999
-3.86371e-05
0.00134854
0.00270653
0.00378542
0.00435013
0.00430919
0.00368921
0.0025868
0.0011145
-0.000617506
-0.00250031
-0.00443276
-0.00632791
-0.00811426
-0.0097385
-0.0111631
-0.0123617
-0.0133172
-0.0140199
-0.0144651
-0.014652
-0.0145804
-0.014252
-0.013667
-0.0128262
-0.0117266
-0.0103629
-0.00873451
-0.00681321
-0.00461989
-0.00187858
0.00129695
0.00584011
0.0121785
0.0230503
0.0410785
0.0687285
0.104429
)
;

boundaryField
{
    movingWall
    {
        type            zeroGradient;
    }
    fixedWalls
    {
        type            zeroGradient;
    }
    frontAndBack
    {
        type            empty;
    }
}


// ************************************************************************* //
