/*--------------------------------*- C++ -*----------------------------------*\
  =========                 |
  \\      /  F ield         | OpenFOAM: The Open Source CFD Toolbox
   \\    /   O peration     | Website:  https://openfoam.org
    \\  /    A nd           | Version:  12
     \\/     M anipulation  |
\*---------------------------------------------------------------------------*/
FoamFile
{
    format      ascii;
    class       surfaceScalarField;
    location    "7.5";
    object      phi;
}
// * * * * * * * * * * * * * * * * * * * * * * * * * * * * * * * * * * * * * //

dimensions      [0 3 -1 0 0 0 0];

internalField   nonuniform List<scalar> 
3120
(
9.27473e-08
-9.27485e-08
2.29241e-07
-1.36494e-07
3.30347e-07
-1.01107e-07
3.64699e-07
-3.43522e-08
3.54126e-07
1.05738e-08
3.34027e-07
2.00988e-08
3.26573e-07
7.45367e-09
3.22423e-07
4.15044e-09
3.0054e-07
2.18821e-08
2.44767e-07
5.57737e-08
1.34874e-07
1.09893e-07
-7.74548e-08
2.12328e-07
-4.12451e-07
3.34997e-07
-9.02516e-07
4.90065e-07
-1.48913e-06
5.8661e-07
-2.0675e-06
5.78377e-07
-2.59233e-06
5.24825e-07
-3.04302e-06
4.50696e-07
-3.41698e-06
3.73952e-07
-3.7151e-06
2.98129e-07
-3.93949e-06
2.2439e-07
-4.09168e-06
1.52187e-07
-4.17281e-06
8.11327e-08
-4.1806e-06
7.78571e-09
-4.11209e-06
-6.85089e-08
-3.96944e-06
-1.42646e-07
-3.73861e-06
-2.3083e-07
-3.42006e-06
-3.18551e-07
-3.00586e-06
-4.14204e-07
-2.49746e-06
-5.08395e-07
-1.89637e-06
-6.01092e-07
-1.22567e-06
-6.70706e-07
-5.39299e-07
-6.86368e-07
8.57738e-08
-6.25073e-07
5.7915e-07
-4.93376e-07
7.82082e-07
-2.02932e-07
6.68551e-07
1.13531e-07
4.33509e-07
2.35042e-07
1.82675e-07
2.50834e-07
1.82675e-07
1.68196e-07
-2.60944e-07
3.52844e-07
-3.21142e-07
4.67098e-07
-2.15362e-07
4.99702e-07
-6.69558e-08
4.67449e-07
4.2827e-08
3.94031e-07
9.35161e-08
2.90569e-07
1.10916e-07
1.33765e-07
1.60955e-07
-1.20003e-07
2.7565e-07
-5.16086e-07
4.51857e-07
-1.08227e-06
6.76076e-07
-1.78332e-06
9.13375e-07
-2.52396e-06
1.07565e-06
-3.1694e-06
1.13551e-06
-3.67622e-06
1.09342e-06
-4.10605e-06
1.00821e-06
-4.47009e-06
8.88869e-07
-4.77294e-06
7.53541e-07
-5.01355e-06
6.14559e-07
-5.19346e-06
4.78042e-07
-5.31302e-06
3.43953e-07
-5.3767e-06
2.15862e-07
-5.38201e-06
8.64431e-08
-5.32952e-06
-4.47016e-08
-5.21939e-06
-1.78635e-07
-5.04172e-06
-3.2032e-07
-4.79747e-06
-4.75076e-07
-4.47444e-06
-6.41584e-07
-4.06372e-06
-8.24922e-07
-3.56179e-06
-1.01033e-06
-2.97415e-06
-1.18873e-06
-2.30868e-06
-1.33618e-06
-1.59145e-06
-1.4036e-06
-8.64963e-07
-1.35156e-06
-2.40966e-07
-1.11737e-06
2.23614e-07
-6.67513e-07
3.78362e-07
-4.12166e-08
3.1343e-07
2.99974e-07
1.46737e-07
4.17527e-07
3.29412e-07
2.04998e-07
-4.65942e-07
3.49182e-07
-4.65326e-07
3.99822e-07
-2.66002e-07
3.72221e-07
-3.93545e-08
2.77568e-07
1.3748e-07
1.09621e-07
2.61463e-07
-1.69437e-07
3.89974e-07
-5.9472e-07
5.86238e-07
-1.18148e-06
8.62407e-07
-1.89434e-06
1.16472e-06
-2.63239e-06
1.41413e-06
-3.27787e-06
1.55885e-06
-3.80887e-06
1.60664e-06
-4.23355e-06
1.56019e-06
-4.58227e-06
1.44214e-06
-4.86348e-06
1.28942e-06
-5.09129e-06
1.11668e-06
-5.27397e-06
9.36219e-07
-5.41638e-06
7.5697e-07
-5.51984e-06
5.81503e-07
-5.58751e-06
4.11625e-07
-5.61533e-06
2.43681e-07
-5.60113e-06
7.22386e-08
-5.5478e-06
-9.80247e-08
-5.45322e-06
-2.73217e-07
-5.3137e-06
-4.59844e-07
-5.12667e-06
-6.62102e-07
-4.88647e-06
-8.81784e-07
-4.58838e-06
-1.12302e-06
-4.21722e-06
-1.38148e-06
-3.76072e-06
-1.64523e-06
-3.20972e-06
-1.88718e-06
-2.56798e-06
-2.04533e-06
-1.8621e-06
-2.05744e-06
-1.14329e-06
-1.83618e-06
-4.95139e-07
-1.31567e-06
-7.84776e-08
-4.57878e-07
3.36099e-08
1.87886e-07
2.35977e-08
4.27539e-07
3.5301e-07
1.72421e-07
-6.38363e-07
2.3007e-07
-5.22975e-07
1.86767e-07
-2.22699e-07
6.40448e-08
8.33681e-08
-1.46465e-07
3.4799e-07
-4.80871e-07
5.9587e-07
-9.67972e-07
8.77075e-07
-1.59635e-06
1.21461e-06
-2.29984e-06
1.5659e-06
-2.98334e-06
1.84821e-06
-3.56551e-06
1.9963e-06
-4.02633e-06
2.01968e-06
-4.37913e-06
1.95944e-06
-4.65041e-06
1.83147e-06
-4.86884e-06
1.66057e-06
-5.04273e-06
1.46331e-06
-5.18412e-06
1.25807e-06
-5.30093e-06
1.05303e-06
-5.39458e-06
8.50625e-07
-5.46056e-06
6.4748e-07
-5.49946e-06
4.5052e-07
-5.50891e-06
2.53137e-07
-5.49019e-06
5.35188e-08
-5.44498e-06
-1.43238e-07
-5.37088e-06
-3.47316e-07
-5.26525e-06
-5.65472e-07
-5.12625e-06
-8.01101e-07
-4.94997e-06
-1.05807e-06
-4.73532e-06
-1.33766e-06
-4.4772e-06
-1.63961e-06
-4.16991e-06
-1.95252e-06
-3.79659e-06
-2.2605e-06
-3.31479e-06
-2.52713e-06
-2.70457e-06
-2.66767e-06
-1.97694e-06
-2.56381e-06
-1.19037e-06
-2.10223e-06
-4.60641e-07
-1.18761e-06
-1.32827e-07
-1.39928e-07
-2.73305e-08
3.22042e-07
3.25679e-07
8.25176e-08
-7.20881e-07
2.70241e-08
-4.67481e-07
-1.23304e-07
-7.23718e-08
-3.59162e-07
3.19227e-07
-7.0511e-07
6.93937e-07
-1.18317e-06
1.07393e-06
-1.7847e-06
1.4786e-06
-2.44839e-06
1.8783e-06
-3.08057e-06
2.19808e-06
-3.602e-06
2.36964e-06
-4.0011e-06
2.3954e-06
-4.30753e-06
2.32611e-06
-4.53742e-06
2.18932e-06
-4.7128e-06
2.00685e-06
-4.85176e-06
1.79953e-06
-4.96543e-06
1.57698e-06
-5.05472e-06
1.34736e-06
-5.11767e-06
1.11598e-06
-5.15492e-06
8.87868e-07
-5.17317e-06
6.65736e-07
-5.17401e-06
4.51362e-07
-5.16019e-06
2.3931e-07
-5.13304e-06
2.63765e-08
-5.08983e-06
-1.86452e-07
-5.02916e-06
-4.07986e-07
-4.95153e-06
-6.43108e-07
-4.85634e-06
-8.96286e-07
-4.7421e-06
-1.17231e-06
-4.60523e-06
-1.47453e-06
-4.44087e-06
-1.80397e-06
-4.2392e-06
-2.15419e-06
-3.99192e-06
-2.50779e-06
-3.68029e-06
-2.83876e-06
-3.25924e-06
-3.08872e-06
-2.66298e-06
-3.16007e-06
-1.87929e-06
-2.88592e-06
-9.36594e-07
-2.13031e-06
-2.22331e-07
-8.5419e-07
-1.43423e-08
1.14053e-07
3.11337e-07
-4.99835e-08
-6.70897e-07
-2.19108e-07
-2.98356e-07
-4.71203e-07
1.79722e-07
-8.15157e-07
6.63181e-07
-1.26829e-06
1.14707e-06
-1.82346e-06
1.62911e-06
-2.43308e-06
2.08822e-06
-3.01758e-06
2.46281e-06
-3.5009e-06
2.6814e-06
-3.86041e-06
2.72915e-06
-4.12832e-06
2.66331e-06
-4.32745e-06
2.52525e-06
-4.47279e-06
2.33466e-06
-4.57914e-06
2.1132e-06
-4.65192e-06
1.8723e-06
-4.69803e-06
1.62309e-06
-4.72356e-06
1.37289e-06
-4.73518e-06
1.12759e-06
-4.73735e-06
8.9004e-07
-4.73113e-06
6.59519e-07
-4.71471e-06
4.34937e-07
-4.68887e-06
2.1347e-07
-4.65474e-06
-7.75257e-09
-4.6102e-06
-2.30986e-07
-4.55634e-06
-4.61847e-07
-4.49446e-06
-7.04992e-07
-4.42548e-06
-9.65267e-07
-4.35004e-06
-1.24774e-06
-4.26768e-06
-1.5569e-06
-4.17611e-06
-1.89554e-06
-4.06812e-06
-2.26218e-06
-3.92853e-06
-2.64737e-06
-3.73973e-06
-3.02756e-06
-3.47216e-06
-3.35629e-06
-3.0688e-06
-3.56343e-06
-2.43725e-06
-3.51747e-06
-1.53104e-06
-3.03651e-06
-5.00746e-07
-1.88448e-06
-3.44522e-08
-3.52241e-07
2.76885e-07
-1.75876e-07
-4.95021e-07
-4.58651e-07
-1.5582e-08
-8.01369e-07
5.2244e-07
-1.23048e-06
1.09229e-06
-1.74169e-06
1.65828e-06
-2.2998e-06
2.18721e-06
-2.84316e-06
2.63158e-06
-3.30115e-06
2.9208e-06
-3.63675e-06
3.017e-06
-3.87589e-06
2.96829e-06
-4.04763e-06
2.83504e-06
-4.16433e-06
2.64195e-06
-4.23997e-06
2.4103e-06
-4.28407e-06
2.1573e-06
-4.30538e-06
1.89362e-06
-4.3116e-06
1.6293e-06
-4.30823e-06
1.36952e-06
-4.2983e-06
1.11767e-06
-4.28248e-06
8.74218e-07
-4.26102e-06
6.38057e-07
-4.23368e-06
4.07597e-07
-4.20047e-06
1.8026e-07
-4.16178e-06
-4.64373e-08
-4.11697e-06
-2.75795e-07
-4.06705e-06
-5.11774e-07
-4.01343e-06
-7.5861e-07
-3.95782e-06
-1.02088e-06
-3.90208e-06
-1.30348e-06
-3.84765e-06
-1.61133e-06
-3.79464e-06
-1.94855e-06
-3.73987e-06
-2.31695e-06
-3.67442e-06
-2.71281e-06
-3.58029e-06
-3.12169e-06
-3.42516e-06
-3.51143e-06
-3.16619e-06
-3.8224e-06
-2.72947e-06
-3.95418e-06
-2.02449e-06
-3.74149e-06
-9.60167e-07
-2.94881e-06
-1.18481e-07
-1.19393e-06
1.58404e-07
-2.88036e-07
-2.06984e-07
-6.50958e-07
3.47339e-07
-1.07101e-06
9.42492e-07
-1.54915e-06
1.57043e-06
-2.0656e-06
2.17473e-06
-2.57695e-06
2.69856e-06
-3.02296e-06
3.07759e-06
-3.35292e-06
3.25075e-06
-3.57719e-06
3.24127e-06
-3.7316e-06
3.1227e-06
-3.83146e-06
2.93491e-06
-3.8889e-06
2.69939e-06
-3.91621e-06
2.43761e-06
-3.92246e-06
2.16355e-06
-3.91588e-06
1.88703e-06
-3.90182e-06
1.61525e-06
-3.88353e-06
1.35122e-06
-3.86219e-06
1.09633e-06
-3.83786e-06
8.49885e-07
-3.81036e-06
6.10561e-07
-3.77927e-06
3.76508e-07
-3.74425e-06
1.45239e-07
-3.70504e-06
-8.56522e-08
-3.66162e-06
-3.19211e-07
-3.61473e-06
-5.58666e-07
-3.56578e-06
-8.07556e-07
-3.51683e-06
-1.06983e-06
-3.4704e-06
-1.34991e-06
-3.42907e-06
-1.65266e-06
-3.39451e-06
-1.98312e-06
-3.36603e-06
-2.34543e-06
-3.33833e-06
-2.74051e-06
-3.29804e-06
-3.16199e-06
-3.2192e-06
-3.59027e-06
-3.05976e-06
-3.98184e-06
-2.7622e-06
-4.25174e-06
-2.25189e-06
-4.2518e-06
-1.42772e-06
-3.77298e-06
-3.39543e-07
-2.28211e-06
-1.81139e-07
-3.64521e-07
1.57537e-07
-7.93927e-07
7.76745e-07
-1.2542e-06
1.40276e-06
-1.7412e-06
2.05743e-06
-2.22965e-06
2.66319e-06
-2.67527e-06
3.14418e-06
-3.01573e-06
3.41805e-06
-3.24351e-06
3.47853e-06
-3.39308e-06
3.39084e-06
-3.48709e-06
3.21671e-06
-3.53749e-06
2.98531e-06
-3.55688e-06
2.71877e-06
-3.55581e-06
2.43655e-06
-3.54235e-06
2.15009e-06
-3.52266e-06
1.86735e-06
-3.50012e-06
1.59271e-06
-3.47641e-06
1.32751e-06
-3.45186e-06
1.07178e-06
-3.42617e-06
8.24196e-07
-3.39869e-06
5.83078e-07
-3.3686e-06
3.46421e-07
-3.33524e-06
1.11877e-07
-3.29799e-06
-1.22903e-07
-3.25683e-06
-3.60367e-07
-3.21227e-06
-6.03224e-07
-3.16554e-06
-8.54292e-07
-3.11864e-06
-1.11673e-06
-3.07434e-06
-1.39421e-06
-3.03589e-06
-1.69111e-06
-3.00633e-06
-2.01267e-06
-2.98719e-06
-2.36457e-06
-2.97616e-06
-2.75153e-06
-2.96395e-06
-3.1742e-06
-2.93034e-06
-3.62387e-06
-2.83954e-06
-4.07264e-06
-2.64008e-06
-4.4512e-06
-2.28502e-06
-4.60686e-06
-1.69134e-06
-4.36665e-06
-6.33234e-07
-3.34022e-06
-8.14373e-07
-4.09259e-07
5.66796e-07
-8.73207e-07
1.24069e-06
-1.34531e-06
1.87486e-06
-1.81676e-06
2.52888e-06
-2.26263e-06
3.10906e-06
-2.62597e-06
3.50752e-06
-2.87363e-06
3.66571e-06
-3.03448e-06
3.63938e-06
-3.13312e-06
3.48948e-06
-3.18642e-06
3.27001e-06
-3.20615e-06
3.00505e-06
-3.20414e-06
2.71676e-06
-3.18928e-06
2.42169e-06
-3.16804e-06
2.12884e-06
-3.14465e-06
1.84396e-06
-3.12111e-06
1.56917e-06
-3.09816e-06
1.30456e-06
-3.07555e-06
1.04918e-06
-3.05258e-06
8.01222e-07
-3.02826e-06
5.5876e-07
-3.00157e-06
3.19735e-07
-2.97169e-06
8.19963e-08
-2.93792e-06
-1.56676e-07
-2.90003e-06
-3.98249e-07
-2.85831e-06
-6.44945e-07
-2.81362e-06
-8.98984e-07
-2.76758e-06
-1.16277e-06
-2.72264e-06
-1.43915e-06
-2.68201e-06
-1.73173e-06
-2.64934e-06
-2.04535e-06
-2.62762e-06
-2.38628e-06
-2.61731e-06
-2.76184e-06
-2.61329e-06
-3.17823e-06
-2.60131e-06
-3.63585e-06
-2.55274e-06
-4.1212e-06
-2.41781e-06
-4.58613e-06
-2.14805e-06
-4.87663e-06
-1.68276e-06
-4.83194e-06
-9.00867e-07
-4.12211e-06
-1.71524e-06
-4.27167e-07
9.93964e-07
-8.95928e-07
1.70945e-06
-1.3563e-06
2.33524e-06
-1.79542e-06
2.968e-06
-2.18425e-06
3.4979e-06
-2.46474e-06
3.78801e-06
-2.65142e-06
3.85238e-06
-2.76725e-06
3.75521e-06
-2.83194e-06
3.55417e-06
-2.86016e-06
3.29822e-06
-2.8632e-06
3.00809e-06
-2.85158e-06
2.70514e-06
-2.83246e-06
2.40257e-06
-2.81074e-06
2.10712e-06
-2.78915e-06
1.82237e-06
-2.76879e-06
1.5488e-06
-2.74971e-06
1.28549e-06
-2.73127e-06
1.03073e-06
-2.71251e-06
7.82468e-07
-2.69237e-06
5.3862e-07
-2.66982e-06
2.97177e-07
-2.64401e-06
5.61914e-08
-2.61433e-06
-1.8636e-07
-2.5804e-06
-4.32175e-07
-2.54229e-06
-6.83051e-07
-2.5005e-06
-9.4078e-07
-2.45611e-06
-1.20716e-06
-2.41098e-06
-1.48428e-06
-2.36781e-06
-1.7749e-06
-2.3301e-06
-2.08307e-06
-2.30147e-06
-2.41491e-06
-2.28426e-06
-2.77905e-06
-2.27681e-06
-3.18568e-06
-2.27015e-06
-3.64251e-06
-2.24356e-06
-4.1478e-06
-2.15393e-06
-4.67576e-06
-1.93119e-06
-5.09936e-06
-1.55581e-06
-5.20732e-06
-9.48747e-07
-4.72918e-06
-2.66399e-06
-4.17578e-07
1.41154e-06
-8.69546e-07
2.16142e-06
-1.30065e-06
2.76634e-06
-1.69842e-06
3.36576e-06
-2.02169e-06
3.82117e-06
-2.24122e-06
4.00755e-06
-2.38638e-06
3.99754e-06
-2.47026e-06
3.8391e-06
-2.51351e-06
3.59742e-06
-2.52782e-06
3.31253e-06
-2.52372e-06
3.00399e-06
-2.50997e-06
2.69139e-06
-2.49215e-06
2.38475e-06
-2.47382e-06
2.08879e-06
-2.45667e-06
1.80522e-06
-2.44111e-06
1.53324e-06
-2.42678e-06
1.27115e-06
-2.41283e-06
1.01678e-06
-2.3983e-06
7.67931e-07
-2.38218e-06
5.225e-07
-2.36358e-06
2.78582e-07
-2.34179e-06
3.44004e-08
-2.31627e-06
-2.11879e-07
-2.28663e-06
-4.61815e-07
-2.25276e-06
-7.16927e-07
-2.21481e-06
-9.78725e-07
-2.17337e-06
-1.2486e-06
-2.12959e-06
-1.52806e-06
-2.08542e-06
-1.81907e-06
-2.04373e-06
-2.12476e-06
-2.00813e-06
-2.45051e-06
-1.98199e-06
-2.8052e-06
-1.96623e-06
-3.20144e-06
-1.95589e-06
-3.65284e-06
-1.93668e-06
-4.16701e-06
-1.87802e-06
-4.73442e-06
-1.69925e-06
-5.27813e-06
-1.38909e-06
-5.51748e-06
-8.48414e-07
-5.26986e-06
-3.5124e-06
-3.87383e-07
1.79893e-06
-8.07115e-07
2.58115e-06
-1.19947e-06
3.1587e-06
-1.54885e-06
3.71515e-06
-1.80778e-06
4.08009e-06
-1.98551e-06
4.18528e-06
-2.09868e-06
4.11071e-06
-2.16227e-06
3.90268e-06
-2.19293e-06
3.62808e-06
-2.20082e-06
3.32042e-06
-2.19543e-06
2.9986e-06
-2.1837e-06
2.67966e-06
-2.16988e-06
2.37094e-06
-2.15649e-06
2.07539e-06
-2.14444e-06
1.79317e-06
-2.13372e-06
1.52253e-06
-2.12378e-06
1.2612e-06
-2.11377e-06
1.00677e-06
-2.10283e-06
7.56995e-07
-2.09017e-06
5.09842e-07
-2.0751e-06
2.63512e-07
-2.05705e-06
1.63514e-08
-2.03561e-06
-2.33325e-07
-2.0104e-06
-4.87019e-07
-1.98121e-06
-7.46121e-07
-1.94795e-06
-1.01199e-06
-1.91076e-06
-1.28579e-06
-1.87018e-06
-1.56864e-06
-1.82736e-06
-1.86189e-06
-1.78434e-06
-2.16778e-06
-1.74419e-06
-2.49066e-06
-1.7106e-06
-2.83878e-06
-1.68623e-06
-3.22582e-06
-1.66919e-06
-3.66988e-06
-1.64951e-06
-4.1867e-06
-1.60457e-06
-4.77936e-06
-1.47276e-06
-5.40993e-06
-1.19974e-06
-5.7905e-06
-7.42999e-07
-5.7266e-06
-4.2554e-06
-3.43377e-07
2.1423e-06
-7.20675e-07
2.95845e-06
-1.06695e-06
3.50497e-06
-1.3622e-06
4.0104e-06
-1.56853e-06
4.28642e-06
-1.7143e-06
4.33105e-06
-1.80468e-06
4.20109e-06
-1.85505e-06
3.95306e-06
-1.87886e-06
3.65189e-06
-1.88492e-06
3.32649e-06
-1.88135e-06
2.99502e-06
-1.87349e-06
2.6718e-06
-1.86452e-06
2.36197e-06
-1.85613e-06
2.067e-06
-1.84875e-06
1.78579e-06
-1.84217e-06
1.51595e-06
-1.83578e-06
1.25482e-06
-1.82891e-06
9.99901e-07
-1.82089e-06
7.48972e-07
-1.81114e-06
5.00094e-07
-1.79919e-06
2.51558e-07
-1.78462e-06
1.78664e-09
-1.76713e-06
-2.50812e-07
-1.74642e-06
-5.07736e-07
-1.72218e-06
-7.70359e-07
-1.69417e-06
-1.04e-06
-1.66222e-06
-1.31774e-06
-1.62636e-06
-1.6045e-06
-1.58706e-06
-1.90119e-06
-1.54555e-06
-2.20929e-06
-1.50415e-06
-2.53206e-06
-1.46631e-06
-2.87663e-06
-1.43559e-06
-3.25653e-06
-1.41283e-06
-3.69264e-06
-1.39175e-06
-4.20778e-06
-1.35507e-06
-4.81604e-06
-1.26309e-06
-5.50192e-06
-1.01993e-06
-6.03366e-06
-6.31577e-07
-6.11495e-06
-4.88698e-06
-2.91574e-07
2.43388e-06
-6.17563e-07
3.28444e-06
-9.13703e-07
3.80111e-06
-1.15449e-06
4.25119e-06
-1.32243e-06
4.45436e-06
-1.44184e-06
4.45047e-06
-1.51419e-06
4.27343e-06
-1.55545e-06
3.99432e-06
-1.57571e-06
3.67214e-06
-1.58232e-06
3.33311e-06
-1.58183e-06
2.99453e-06
-1.57822e-06
2.6682e-06
-1.57384e-06
2.35759e-06
-1.56976e-06
2.06292e-06
-1.56617e-06
1.7822e-06
-1.56278e-06
1.51256e-06
-1.55911e-06
1.25116e-06
-1.55467e-06
9.95459e-07
-1.54901e-06
7.43309e-07
-1.54176e-06
4.9285e-07
-1.53264e-06
2.42437e-07
-1.52138e-06
-9.4717e-09
-1.50777e-06
-2.64424e-07
-1.49156e-06
-5.23945e-07
-1.47245e-06
-7.89473e-07
-1.45008e-06
-1.06236e-06
-1.42407e-06
-1.34375e-06
-1.39409e-06
-1.63448e-06
-1.36008e-06
-1.9352e-06
-1.3226e-06
-2.24677e-06
-1.28322e-06
-2.57143e-06
-1.24488e-06
-2.91497e-06
-1.21146e-06
-3.28996e-06
-1.18548e-06
-3.71861e-06
-1.16322e-06
-4.23004e-06
-1.13147e-06
-4.84779e-06
-1.06336e-06
-5.57002e-06
-8.65578e-07
-6.23144e-06
-5.42283e-07
-6.43825e-06
-5.42926e-06
-2.32678e-07
2.66655e-06
-5.04939e-07
3.5567e-06
-7.5113e-07
4.0473e-06
-9.42226e-07
4.44229e-06
-1.0777e-06
4.58983e-06
-1.17289e-06
4.54566e-06
-1.23174e-06
4.33228e-06
-1.26657e-06
4.02915e-06
-1.28502e-06
3.69059e-06
-1.29308e-06
3.34117e-06
-1.29577e-06
2.99722e-06
-1.29598e-06
2.66841e-06
-1.29538e-06
2.35699e-06
-1.29466e-06
2.0622e-06
-1.29387e-06
1.78142e-06
-1.29281e-06
1.5115e-06
-1.29116e-06
1.2495e-06
-1.28861e-06
9.92913e-07
-1.28493e-06
7.39629e-07
-1.27993e-06
4.87854e-07
-1.27348e-06
2.3598e-07
-1.26542e-06
-1.75279e-08
-1.25563e-06
-2.74212e-07
-1.24393e-06
-5.35649e-07
-1.23003e-06
-8.03375e-07
-1.21353e-06
-1.07886e-06
-1.19394e-06
-1.36334e-06
-1.17068e-06
-1.65774e-06
-1.14331e-06
-1.96257e-06
-1.11183e-06
-2.27824e-06
-1.0772e-06
-2.60607e-06
-1.0418e-06
-2.95037e-06
-1.00954e-06
-3.32221e-06
-9.84223e-07
-3.74393e-06
-9.6479e-07
-4.24948e-06
-9.41593e-07
-4.87099e-06
-8.93913e-07
-5.6177e-06
-7.35591e-07
-6.38976e-06
-4.55151e-07
-6.71869e-06
-5.88441e-06
-1.74305e-07
2.84086e-06
-3.90174e-07
3.77257e-06
-5.85743e-07
4.24287e-06
-7.31606e-07
4.58815e-06
-8.37363e-07
4.69559e-06
-9.1164e-07
4.61994e-06
-9.59356e-07
4.37999e-06
-9.89173e-07
4.05897e-06
-1.00653e-06
3.70794e-06
-1.01607e-06
3.35071e-06
-1.02144e-06
3.00259e-06
-1.02465e-06
2.67162e-06
-1.02686e-06
2.35919e-06
-1.02851e-06
2.06385e-06
-1.02967e-06
1.78257e-06
-1.03023e-06
1.51205e-06
-1.03005e-06
1.24933e-06
-1.02903e-06
9.91891e-07
-1.02709e-06
7.37689e-07
-1.02419e-06
4.84958e-07
-1.02031e-06
2.321e-07
-1.01541e-06
-2.2434e-08
-1.00941e-06
-2.80208e-07
-1.00221e-06
-5.42853e-07
-9.93558e-07
-8.12024e-07
-9.83085e-07
-1.08933e-06
-9.70235e-07
-1.37619e-06
-9.54309e-07
-1.67367e-06
-9.34599e-07
-1.98228e-06
-9.10699e-07
-2.30214e-06
-8.82994e-07
-2.63377e-06
-8.53271e-07
-2.98009e-06
-8.25131e-07
-3.35035e-06
-8.03165e-07
-3.7659e-06
-7.89001e-07
-4.26364e-06
-7.75128e-07
-4.88486e-06
-7.40942e-07
-5.65189e-06
-6.29928e-07
-6.50077e-06
-3.96793e-07
-6.95182e-06
-6.2812e-06
-1.11484e-07
2.95234e-06
-2.73921e-07
3.93501e-06
-4.20024e-07
4.38897e-06
-5.25477e-07
4.6936e-06
-6.04361e-07
4.77448e-06
-6.59762e-07
4.67534e-06
-6.97413e-07
4.41764e-06
-7.2268e-07
4.08424e-06
-7.38971e-07
3.72423e-06
-7.49545e-07
3.36128e-06
-7.56833e-07
3.00988e-06
-7.62136e-07
2.67692e-06
-7.66212e-07
2.36327e-06
-7.69387e-07
2.06703e-06
-7.71773e-07
1.78496e-06
-7.73407e-07
1.51369e-06
-7.7432e-07
1.25024e-06
-7.74566e-07
9.92136e-07
-7.74211e-07
7.37334e-07
-7.73331e-07
4.84078e-07
-7.71986e-07
2.30755e-07
-7.70211e-07
-2.42086e-08
-7.68002e-07
-2.82417e-07
-7.65296e-07
-5.45559e-07
-7.61919e-07
-8.15401e-07
-7.57544e-07
-1.0937e-06
-7.51639e-07
-1.3821e-06
-7.43467e-07
-1.68184e-06
-7.32177e-07
-1.99357e-06
-7.1708e-07
-2.31724e-06
-6.98132e-07
-2.65272e-06
-6.7659e-07
-3.00163e-06
-6.55631e-07
-3.37131e-06
-6.40153e-07
-3.78138e-06
-6.33759e-07
-4.27004e-06
-6.31259e-07
-4.88736e-06
-6.127e-07
-5.67045e-06
-5.35604e-07
-6.57787e-06
-3.41355e-07
-7.14607e-06
-6.62256e-06
-5.54286e-08
3.00777e-06
-1.6056e-07
4.04014e-06
-2.57231e-07
4.48564e-06
-3.25904e-07
4.76228e-06
-3.79215e-07
4.82779e-06
-4.17009e-07
4.71313e-06
-4.45087e-07
4.44572e-06
-4.6574e-07
4.10489e-06
-4.80579e-07
3.73907e-06
-4.91521e-07
3.37223e-06
-4.99918e-07
3.01828e-06
-5.0644e-07
2.68345e-06
-5.11572e-07
2.3684e-06
-5.15577e-07
2.07103e-06
-5.18638e-07
1.78802e-06
-5.20932e-07
1.51598e-06
-5.22644e-07
1.25195e-06
-5.23967e-07
9.93459e-07
-5.25083e-07
7.38451e-07
-5.26158e-07
4.85153e-07
-5.27325e-07
2.31922e-07
-5.28679e-07
-2.28547e-08
-5.30265e-07
-2.80831e-07
-5.32072e-07
-5.43752e-07
-5.33993e-07
-8.13479e-07
-5.35771e-07
-1.09193e-06
-5.36942e-07
-1.38093e-06
-5.36807e-07
-1.68198e-06
-5.34475e-07
-1.9959e-06
-5.29078e-07
-2.32264e-06
-5.20236e-07
-2.66156e-06
-5.08732e-07
-3.01314e-06
-4.97282e-07
-3.38276e-06
-4.90758e-07
-3.7879e-06
-4.93941e-07
-4.26685e-06
-5.03896e-07
-4.87741e-06
-5.04157e-07
-5.67019e-06
-4.5864e-07
-6.62339e-06
-3.01408e-07
-7.30331e-06
-6.92397e-06
6.85448e-09
3.00092e-06
-4.63232e-08
4.09331e-06
-9.83417e-08
4.53766e-06
-1.33817e-07
4.79775e-06
-1.61768e-07
4.85574e-06
-1.82768e-07
4.73413e-06
-2.00991e-07
4.46394e-06
-2.16531e-07
4.12043e-06
-2.29341e-07
3.75188e-06
-2.39917e-07
3.3828e-06
-2.48693e-07
3.02705e-06
-2.55671e-07
2.69042e-06
-2.61218e-07
2.37395e-06
-2.6551e-07
2.07532e-06
-2.68812e-07
1.79132e-06
-2.71437e-07
1.51861e-06
-2.73711e-07
1.25423e-06
-2.75948e-07
9.95696e-07
-2.78432e-07
7.40935e-07
-2.81405e-07
4.88125e-07
-2.8506e-07
2.35578e-07
-2.89543e-07
-1.83713e-08
-2.94942e-07
-2.75433e-07
-3.01291e-07
-5.37403e-07
-3.08544e-07
-8.06226e-07
-3.16524e-07
-1.08395e-06
-3.2487e-07
-1.37258e-06
-3.32976e-07
-1.67387e-06
-3.39995e-07
-1.98888e-06
-3.44998e-07
-2.31763e-06
-3.47371e-07
-2.65919e-06
-3.47486e-07
-3.01302e-06
-3.47577e-07
-3.38267e-06
-3.52246e-07
-3.78323e-06
-3.66914e-07
-4.25218e-06
-3.90898e-07
-4.85342e-06
-4.09885e-07
-5.6512e-06
-3.90595e-07
-6.64268e-06
-2.64165e-07
-7.42973e-06
-7.18813e-06
6.41021e-08
2.93682e-06
6.50984e-08
4.09232e-06
5.53876e-08
4.54737e-06
5.15428e-08
4.8016e-06
4.90379e-08
4.85824e-06
4.4033e-08
4.73914e-06
3.63926e-08
4.47159e-06
2.67125e-08
4.13011e-06
1.67162e-08
3.76188e-06
7.31647e-09
3.3922e-06
-8.78563e-10
3.03525e-06
-7.8959e-09
2.69744e-06
-1.33817e-08
2.37943e-06
-1.7556e-08
2.0795e-06
-2.07793e-08
1.79454e-06
-2.34849e-08
1.52131e-06
-2.61252e-08
1.25687e-06
-2.91272e-08
9.98698e-07
-3.28678e-08
7.44676e-07
-3.76628e-08
4.9292e-07
-4.37659e-08
2.41681e-07
-5.13754e-08
-1.07618e-08
-6.0611e-08
-2.66197e-07
-7.15474e-08
-5.26466e-07
-8.4187e-08
-7.93587e-07
-9.84289e-08
-1.0697e-06
-1.1402e-07
-1.35699e-06
-1.30495e-07
-1.6574e-06
-1.47137e-07
-1.97224e-06
-1.63066e-07
-2.30171e-06
-1.77533e-07
-2.64472e-06
-1.90487e-07
-3.00007e-06
-2.03735e-07
-3.36942e-06
-2.21458e-07
-3.76551e-06
-2.49355e-07
-4.22429e-06
-2.88781e-07
-4.81399e-06
-3.27417e-07
-5.61257e-06
-3.34722e-07
-6.63537e-06
-2.36143e-07
-7.52831e-06
-7.42427e-06
1.22155e-07
2.81466e-06
1.74687e-07
4.03979e-06
2.06374e-07
4.51568e-06
2.35091e-07
4.77288e-06
2.58871e-07
4.83446e-06
2.7002e-07
4.72799e-06
2.70891e-07
4.47071e-06
2.66694e-07
4.13431e-06
2.59769e-07
3.7688e-06
2.51962e-07
3.40001e-06
2.44509e-07
3.0427e-06
2.38291e-07
2.70366e-06
2.33413e-07
2.38431e-06
2.29751e-07
2.08316e-06
2.26915e-07
1.79738e-06
2.24379e-07
1.52385e-06
2.21583e-07
1.25966e-06
2.17994e-07
1.00229e-06
2.13145e-07
7.49525e-07
2.06645e-07
4.9942e-07
1.98182e-07
2.50144e-07
1.87486e-07
-6.57074e-11
1.74432e-07
-2.53143e-07
1.58883e-07
-5.10917e-07
1.40792e-07
-7.75496e-07
1.20196e-07
-1.04911e-06
9.72492e-08
-1.33404e-06
7.22603e-08
-1.63241e-06
4.57813e-08
-1.94576e-06
1.86016e-08
-2.27453e-06
-8.53826e-09
-2.61758e-06
-3.55867e-08
-2.97302e-06
-6.3524e-08
-3.34148e-06
-9.60344e-08
-3.733e-06
-1.3884e-07
-4.18148e-06
-1.94634e-07
-4.7582e-06
-2.52121e-07
-5.55508e-06
-2.8387e-07
-6.60362e-06
-2.10753e-07
-7.60143e-06
-7.63503e-06
1.80278e-07
2.63438e-06
2.82989e-07
3.93708e-06
3.53017e-07
4.44566e-06
4.11673e-07
4.71422e-06
4.60532e-07
4.78561e-06
4.90171e-07
4.69835e-06
5.01308e-07
4.45958e-06
5.03994e-07
4.13162e-06
5.01255e-07
3.77154e-06
4.95948e-07
3.40531e-06
4.90124e-07
3.04853e-06
4.84982e-07
2.7088e-06
4.81013e-07
2.38828e-06
4.78144e-07
2.08603e-06
4.7595e-07
1.79957e-06
4.73818e-07
1.52598e-06
4.71084e-07
1.2624e-06
4.67111e-07
1.00626e-06
4.6134e-07
7.55296e-07
4.53298e-07
5.07462e-07
4.42598e-07
2.60844e-07
4.28967e-07
1.35659e-08
4.12141e-07
-2.36317e-07
3.91992e-07
-4.90768e-07
3.68419e-07
-7.51923e-07
3.41389e-07
-1.02208e-06
3.10934e-07
-1.30359e-06
2.77206e-07
-1.59868e-06
2.40561e-07
-1.90912e-06
2.01559e-07
-2.23552e-06
1.60875e-07
-2.5769e-06
1.19029e-07
-2.93117e-06
7.52339e-08
-3.29769e-06
2.63959e-08
-3.68416e-06
-3.31516e-08
-4.12193e-06
-1.06961e-07
-4.68439e-06
-1.84071e-07
-5.47797e-06
-2.3718e-07
-6.55051e-06
-1.91689e-07
-7.64692e-06
-7.82672e-06
2.36249e-07
2.39813e-06
3.88959e-07
3.78437e-06
4.96404e-07
4.33821e-06
5.84685e-07
4.62594e-06
6.55438e-07
4.71485e-06
7.05141e-07
4.64864e-06
7.28842e-07
4.43588e-06
7.39777e-07
4.12068e-06
7.42413e-07
3.76891e-06
7.40602e-07
3.40712e-06
7.37144e-07
3.05199e-06
7.33742e-07
2.7122e-06
7.31157e-07
2.39087e-06
7.29437e-07
2.08775e-06
7.28169e-07
1.80084e-06
7.26689e-07
1.52746e-06
7.24248e-07
1.26484e-06
7.20117e-07
1.01039e-06
7.13639e-07
7.61774e-07
7.04258e-07
5.16844e-07
6.91514e-07
2.73588e-07
6.7505e-07
3.003e-08
6.54581e-07
-2.15848e-07
6.29901e-07
-4.66088e-07
6.00848e-07
-7.2287e-07
5.67295e-07
-9.88527e-07
5.29172e-07
-1.26546e-06
4.86505e-07
-1.55601e-06
4.3942e-07
-1.86203e-06
3.88223e-07
-2.18433e-06
3.33473e-07
-2.52215e-06
2.75716e-07
-2.87341e-06
2.14701e-07
-3.23667e-06
1.47995e-07
-3.61746e-06
7.01435e-08
-4.04408e-06
-2.34057e-08
-4.59084e-06
-1.21938e-07
-5.37944e-06
-1.95371e-07
-6.47708e-06
-1.74246e-07
-7.66804e-06
-8.00096e-06
2.89978e-07
2.10816e-06
4.91212e-07
3.58313e-06
6.34915e-07
4.19451e-06
7.52054e-07
4.5088e-06
8.44429e-07
4.62248e-06
9.14944e-07
4.57813e-06
9.53972e-07
4.39685e-06
9.74586e-07
4.10007e-06
9.83983e-07
3.75951e-06
9.86966e-07
3.40414e-06
9.86954e-07
3.052e-06
9.86125e-07
2.71303e-06
9.85548e-07
2.39144e-06
9.85449e-07
2.08785e-06
9.85483e-07
1.80081e-06
9.84975e-07
1.52797e-06
9.83119e-07
1.26669e-06
9.79103e-07
1.01441e-06
9.7218e-07
7.68696e-07
9.61705e-07
5.27319e-07
9.47135e-07
2.88158e-07
9.28032e-07
4.91325e-08
9.04054e-07
-1.91869e-07
8.74913e-07
-4.36947e-07
8.40373e-07
-6.8833e-07
8.00239e-07
-9.48392e-07
7.54323e-07
-1.21955e-06
7.02446e-07
-1.50413e-06
6.44497e-07
-1.80408e-06
5.80584e-07
-2.12041e-06
5.1104e-07
-2.45261e-06
4.36382e-07
-2.79876e-06
3.56822e-07
-3.15711e-06
2.707e-07
-3.53133e-06
1.73102e-07
-3.94648e-06
5.88447e-08
-4.47658e-06
-6.28076e-08
-5.25779e-06
-1.57381e-07
-6.38251e-06
-1.60739e-07
-7.66469e-06
-8.1617e-06
3.39204e-07
1.76895e-06
5.86774e-07
3.33556e-06
7.65636e-07
4.01565e-06
9.09993e-07
4.36445e-06
1.02634e-06
4.50613e-06
1.117e-06
4.48747e-06
1.17493e-06
4.33892e-06
1.20788e-06
4.06712e-06
1.22609e-06
3.74131e-06
1.23561e-06
3.39462e-06
1.24052e-06
3.04708e-06
1.24346e-06
2.7101e-06
1.24582e-06
2.38909e-06
1.24805e-06
2.08561e-06
1.24994e-06
1.79892e-06
1.25086e-06
1.52705e-06
1.24997e-06
1.26758e-06
1.24641e-06
1.01796e-06
1.23936e-06
7.75747e-07
1.22809e-06
5.38592e-07
1.21196e-06
3.04288e-07
1.19045e-06
7.0639e-08
1.16315e-06
-1.64563e-07
1.12966e-06
-4.03459e-07
1.08966e-06
-6.48332e-07
1.04285e-06
-9.01581e-07
9.88904e-07
-1.1656e-06
9.27482e-07
-1.44271e-06
8.58231e-07
-1.73483e-06
7.80918e-07
-2.0431e-06
6.9561e-07
-2.3673e-06
6.02878e-07
-2.70603e-06
5.03339e-07
-3.05757e-06
3.96106e-07
-3.4241e-06
2.7712e-07
-3.8275e-06
1.42077e-07
-4.34154e-06
2.61531e-09
-5.11832e-06
-1.15743e-07
-6.26415e-06
-1.43984e-07
-7.63645e-06
-8.30569e-06
3.78942e-07
1.39001e-06
6.69841e-07
3.04466e-06
8.83913e-07
3.80157e-06
1.05583e-06
4.19253e-06
1.19689e-06
4.36506e-06
1.30811e-06
4.37625e-06
1.38803e-06
4.259e-06
1.43734e-06
4.0178e-06
1.46756e-06
3.71109e-06
1.48621e-06
3.37597e-06
1.49821e-06
3.03509e-06
1.50667e-06
2.70163e-06
1.51337e-06
2.38238e-06
1.51904e-06
2.07995e-06
1.52364e-06
1.79432e-06
1.52664e-06
1.52405e-06
1.52726e-06
1.26696e-06
1.52461e-06
1.02061e-06
1.51783e-06
7.82528e-07
1.50611e-06
5.50309e-07
1.48874e-06
3.21665e-07
1.4651e-06
9.42785e-08
1.43468e-06
-1.34144e-07
1.39698e-06
-3.6576e-07
1.35156e-06
-6.02908e-07
1.29798e-06
-8.47999e-07
1.23575e-06
-1.10338e-06
1.16432e-06
-1.37129e-06
1.08309e-06
-1.6536e-06
9.91541e-07
-1.95155e-06
8.89491e-07
-2.26525e-06
7.77386e-07
-2.59392e-06
6.5615e-07
-2.93634e-06
5.25879e-07
-3.29383e-06
3.83181e-07
-3.6848e-06
2.23311e-07
-4.18167e-06
5.46224e-08
-4.94964e-06
-8.41314e-08
-6.12539e-06
-1.34449e-07
-7.58613e-06
-8.44014e-06
3.997e-07
9.90309e-07
7.31328e-07
2.71304e-06
9.83768e-07
3.54913e-06
1.18448e-06
3.99182e-06
1.35024e-06
4.1993e-06
1.48506e-06
4.24144e-06
1.58882e-06
4.15524e-06
1.6591e-06
3.94752e-06
1.70578e-06
3.66441e-06
1.73731e-06
3.34444e-06
1.75949e-06
3.01292e-06
1.77604e-06
2.68508e-06
1.78916e-06
2.36926e-06
1.7999e-06
2.0692e-06
1.8085e-06
1.78573e-06
1.81459e-06
1.51796e-06
1.8175e-06
1.26405e-06
1.8164e-06
1.02171e-06
1.8104e-06
7.88524e-07
1.79868e-06
5.62037e-07
1.78041e-06
3.39927e-07
1.75494e-06
1.1975e-07
1.72163e-06
-1.0083e-07
1.67984e-06
-3.23968e-07
1.62899e-06
-5.52059e-07
1.56848e-06
-7.8749e-07
1.49762e-06
-1.03251e-06
1.41562e-06
-1.28929e-06
1.3216e-06
-1.55958e-06
1.21479e-06
-1.84474e-06
1.09473e-06
-2.14519e-06
9.61807e-07
-2.46099e-06
8.17095e-07
-2.79163e-06
6.61593e-07
-3.13833e-06
4.92912e-07
-3.51612e-06
3.0646e-07
-3.99522e-06
1.11233e-07
-4.75441e-06
-5.16064e-08
-5.96255e-06
-1.21728e-07
-7.51601e-06
-8.56186e-06
3.8295e-07
6.07359e-07
7.61093e-07
2.33489e-06
1.05668e-06
3.25354e-06
1.28864e-06
3.75986e-06
1.47992e-06
4.00802e-06
1.64082e-06
4.08055e-06
1.77122e-06
4.02483e-06
1.86747e-06
3.85128e-06
1.93619e-06
3.59569e-06
1.98568e-06
3.29494e-06
2.02239e-06
2.97621e-06
2.05066e-06
2.65681e-06
2.07318e-06
2.34674e-06
2.09142e-06
2.05096e-06
2.10592e-06
1.77123e-06
2.1166e-06
1.50728e-06
2.12297e-06
1.25768e-06
2.12431e-06
1.02037e-06
2.11981e-06
7.93026e-07
2.10862e-06
5.73227e-07
2.0899e-06
3.58645e-07
2.06292e-06
1.46727e-07
2.0269e-06
-6.48107e-08
1.98109e-06
-2.78158e-07
1.92475e-06
-4.95715e-07
1.85705e-06
-7.19795e-07
1.77707e-06
-9.5253e-07
1.68376e-06
-1.19598e-06
1.57596e-06
-1.45179e-06
1.45264e-06
-1.72142e-06
1.31315e-06
-2.00569e-06
1.15778e-06
-2.30563e-06
9.87702e-07
-2.62155e-06
8.04698e-07
-2.95532e-06
6.07556e-07
-3.31898e-06
3.92546e-07
-3.78021e-06
1.68122e-07
-4.52998e-06
-2.63057e-08
-5.76813e-06
-1.16517e-07
-7.4258e-06
-8.67838e-06
3.09414e-07
2.97945e-07
7.52095e-07
1.89221e-06
1.09193e-06
2.91371e-06
1.35855e-06
3.49324e-06
1.57825e-06
3.78832e-06
1.76723e-06
3.89156e-06
1.92776e-06
3.8643e-06
2.05518e-06
3.72386e-06
2.15242e-06
3.49844e-06
2.22625e-06
3.22111e-06
2.28316e-06
2.9193e-06
2.328e-06
2.61197e-06
2.364e-06
2.31074e-06
2.39308e-06
2.02188e-06
2.4162e-06
1.74811e-06
2.43362e-06
1.48986e-06
2.44514e-06
1.24616e-06
2.45022e-06
1.01529e-06
2.4482e-06
7.95047e-07
2.43828e-06
5.83147e-07
2.41964e-06
3.77278e-07
2.39152e-06
1.74851e-07
2.35293e-06
-2.62259e-08
2.30313e-06
-2.28353e-07
2.24111e-06
-4.337e-07
2.16584e-06
-6.44522e-07
2.0761e-06
-8.62792e-07
1.97059e-06
-1.09046e-06
1.84786e-06
-1.32906e-06
1.70671e-06
-1.58027e-06
1.54628e-06
-1.84526e-06
1.36686e-06