/*--------------------------------*- C++ -*----------------------------------*\
  =========                 |
  \\      /  F ield         | OpenFOAM: The Open Source CFD Toolbox
   \\    /   O peration     | Website:  https://openfoam.org
    \\  /    A nd           | Version:  12
     \\/     M anipulation  |
\*---------------------------------------------------------------------------*/
FoamFile
{
    format      ascii;
    class       volVectorField;
    location    "7.5";
    object      U;
}
// * * * * * * * * * * * * * * * * * * * * * * * * * * * * * * * * * * * * * //

dimensions      [0 1 -1 0 0 0 0];

internalField   nonuniform List<vector> 
1600
(
(0.00128883 -0.0011058 0)
(0.00651543 -0.00169644 0)
(0.01142 -0.00136993 0)
(0.0143507 -0.000207327 0)
(0.0145898 0.00036682 0)
(0.0139997 0.00015647 0)
(0.0132244 -0.000665531 0)
(0.0130801 -0.00124504 0)
(0.0127093 -0.00123936 0)
(0.011498 -0.00093154 0)
(0.00875696 -0.000743052 0)
(0.00181962 2.18158e-05 0)
(-0.0092362 0.00211439 0)
(-0.0216111 0.00797388 0)
(-0.0472808 0.013683 0)
(-0.0727235 0.013705 0)
(-0.095227 0.0125406 0)
(-0.114804 0.010878 0)
(-0.130893 0.0091386 0)
(-0.144138 0.00743848 0)
(-0.154253 0.0057916 0)
(-0.161714 0.00421148 0)
(-0.165943 0.0027328 0)
(-0.16765 0.00130826 0)
(-0.166768 -0.00101398 0)
(-0.16206 -0.00260669 0)
(-0.15455 -0.00489726 0)
(-0.142859 -0.00673784 0)
(-0.127789 -0.00902966 0)
(-0.109015 -0.0112833 0)
(-0.0868984 -0.0135588 0)
(-0.061991 -0.0150613 0)
(-0.0355834 -0.0153741 0)
(-0.00853211 -0.013959 0)
(0.0133222 -0.0118458 0)
(0.0296047 -0.00468605 0)
(0.0312883 0.00314402 0)
(0.0248833 0.00524906 0)
(0.0119797 0.00457828 0)
(0.00251888 0.0031126 0)
(0.00229143 -0.00646178 0)
(0.0110824 -0.00946799 0)
(0.0167137 -0.00682271 0)
(0.0198436 -0.00258827 0)
(0.0200477 0.000579492 0)
(0.0179115 0.00168977 0)
(0.0142081 0.00145909 0)
(0.00915229 0.0017204 0)
(0.00126515 0.00325345 0)
(-0.0111855 0.00613645 0)
(-0.0291032 0.011481 0)
(-0.0560938 0.0206044 0)
(-0.0875332 0.0295957 0)
(-0.114984 0.0356306 0)
(-0.137463 0.035519 0)
(-0.1568 0.0328271 0)
(-0.172851 0.0288456 0)
(-0.186237 0.0244133 0)
(-0.196876 0.019973 0)
(-0.205138 0.0156233 0)
(-0.210945 0.0114306 0)
(-0.214529 0.00730319 0)
(-0.21581 0.0032134 0)
(-0.2149 -0.00102592 0)
(-0.211518 -0.00563008 0)
(-0.20572 -0.0104195 0)
(-0.19717 -0.0155345 0)
(-0.185669 -0.0209373 0)
(-0.170889 -0.0266236 0)
(-0.152143 -0.0321161 0)
(-0.130242 -0.0372728 0)
(-0.105535 -0.0412903 0)
(-0.0783475 -0.0423344 0)
(-0.0500883 -0.0392694 0)
(-0.0228503 -0.0308619 0)
(0.000494772 -0.0147042 0)
(0.0165538 0.00368909 0)
(0.0167735 0.0116102 0)
(0.0100297 0.0140475 0)
(0.00155527 0.0108264 0)
(0.00360191 -0.0148592 0)
(0.0120663 -0.016903 0)
(0.0153123 -0.011017 0)
(0.0160335 -0.00320558 0)
(0.0138877 0.00249801 0)
(0.00892151 0.00554685 0)
(0.000133347 0.00770986 0)
(-0.0134405 0.0121504 0)
(-0.0335141 0.0207592 0)
(-0.0606801 0.0325618 0)
(-0.0911966 0.0440578 0)
(-0.119115 0.0511366 0)
(-0.143064 0.0542543 0)
(-0.161891 0.0539508 0)
(-0.177354 0.0506447 0)
(-0.189808 0.0457492 0)
(-0.199926 0.0398071 0)
(-0.208053 0.0335703 0)
(-0.214459 0.0272914 0)
(-0.219269 0.0211593 0)
(-0.2227 0.0148672 0)
(-0.224543 0.00894384 0)
(-0.224826 0.00293417 0)
(-0.22344 -0.00311635 0)
(-0.220406 -0.00947682 0)
(-0.215665 -0.0162573 0)
(-0.209102 -0.0237778 0)
(-0.200441 -0.0320186 0)
(-0.189578 -0.0411468 0)
(-0.176116 -0.050486 0)
(-0.159574 -0.0594852 0)
(-0.139485 -0.0666602 0)
(-0.116019 -0.0698492 0)
(-0.0901061 -0.0677293 0)
(-0.0622466 -0.0571542 0)
(-0.033865 -0.0365146 0)
(-0.00670269 -0.00642374 0)
(0.00157807 0.011604 0)
(0.00183404 0.0184207 0)
(-0.000235777 0.0144332 0)
(0.00412791 -0.0237403 0)
(0.00875582 -0.0214066 0)
(0.00888082 -0.0113162 0)
(0.00577761 -0.00042122 0)
(-0.000331259 0.00807284 0)
(-0.0108387 0.0153629 0)
(-0.0271908 0.0239087 0)
(-0.0497475 0.0354685 0)
(-0.0771489 0.0491007 0)
(-0.106486 0.0614747 0)
(-0.132848 0.0695513 0)
(-0.153189 0.072411 0)
(-0.169234 0.071636 0)
(-0.181322 0.0678012 0)
(-0.191166 0.062104 0)
(-0.198785 0.0552926 0)
(-0.204973 0.0478632 0)
(-0.210032 0.0399896 0)
(-0.214313 0.0320648 0)
(-0.217522 0.024295 0)
(-0.219602 0.0169543 0)
(-0.220504 0.0095318 0)
(-0.220302 0.00213848 0)
(-0.219003 -0.00543639 0)
(-0.216596 -0.0132472 0)
(-0.21296 -0.0215281 0)
(-0.208032 -0.0304297 0)
(-0.201678 -0.0400854 0)
(-0.193738 -0.0505367 0)
(-0.184162 -0.0621252 0)
(-0.172809 -0.0742635 0)
(-0.159376 -0.0860464 0)
(-0.143181 -0.0949045 0)
(-0.122097 -0.0967326 0)
(-0.0959906 -0.0877931 0)
(-0.0656807 -0.0657019 0)
(-0.0296338 -0.0277022 0)
(-0.00746931 0.00425703 0)
(-0.0022728 0.0162541 0)
(-0.00027367 0.0139431 0)
(0.00242045 -0.0282769 0)
(0.0031492 -0.0213156 0)
(-0.001276 -0.0069839 0)
(-0.00852755 0.00688026 0)
(-0.0197016 0.0196325 0)
(-0.0359673 0.032445 0)
(-0.0579343 0.0468392 0)
(-0.0841637 0.0624467 0)
(-0.1113 0.0763425 0)
(-0.13545 0.0854383 0)
(-0.153625 0.088497 0)
(-0.167288 0.0874027 0)
(-0.177765 0.0833413 0)
(-0.185518 0.0770439 0)
(-0.191706 0.069496 0)
(-0.196616 0.0609308 0)
(-0.200777 0.0520754 0)
(-0.203858 0.0433045 0)
(-0.2058 0.0347136 0)
(-0.20679 0.0262298 0)
(-0.207149 0.0179254 0)
(-0.206865 0.00967241 0)
(-0.206041 0.00143733 0)
(-0.204638 -0.00698557 0)
(-0.20253 -0.0157181 0)
(-0.199744 -0.0250011 0)
(-0.196254 -0.0350141 0)
(-0.192018 -0.0459274 0)
(-0.186944 -0.0578019 0)
(-0.18089 -0.0705401 0)
(-0.173605 -0.0838419 0)
(-0.164675 -0.0969784 0)
(-0.153884 -0.109471 0)
(-0.14013 -0.117976 0)
(-0.120693 -0.116977 0)
(-0.0929814 -0.100068 0)
(-0.0573251 -0.0645164 0)
(-0.017284 -0.0139224 0)
(-0.00220796 0.0107248 0)
(0.000752138 0.0130009 0)
(-0.000559032 -0.0290108 0)
(-0.00450667 -0.0161573 0)
(-0.012992 0.00136702 0)
(-0.024448 0.0189449 0)
(-0.0401294 0.0363038 0)
(-0.06048 0.0540155 0)
(-0.0845963 0.0718859 0)
(-0.109639 0.0877328 0)
(-0.132022 0.0986127 0)
(-0.14883 0.102659 0)
(-0.160853 0.101561 0)
(-0.169993 0.0973488 0)
(-0.176589 0.0907257 0)
(-0.181424 0.0826063 0)
(-0.185031 0.0735592 0)
(-0.187301 0.0641389 0)
(-0.188712 0.0545675 0)
(-0.189331 0.0450326 0)
(-0.189566 0.0356839 0)
(-0.189518 0.026596 0)
(-0.189031 0.017764 0)
(-0.188195 0.00905664 0)
(-0.186988 0.000384773 0)
(-0.185396 -0.00842793 0)
(-0.183402 -0.0175472 0)
(-0.181069 -0.0271934 0)
(-0.178423 -0.0375722 0)
(-0.1755 -0.0489041 0)
(-0.172306 -0.061368 0)
(-0.168808 -0.0750379 0)
(-0.164861 -0.0897285 0)
(-0.160111 -0.104842 0)
(-0.153865 -0.119112 0)
(-0.144969 -0.130716 0)
(-0.131977 -0.137085 0)
(-0.111925 -0.130991 0)
(-0.0819118 -0.10482 0)
(-0.0385148 -0.052469 0)
(-0.00514419 -0.00212846 0)
(0.00165036 0.0122594 0)
(-0.00379424 -0.023639 0)
(-0.0121897 -0.0069989 0)
(-0.0242453 0.0136429 0)
(-0.0393666 0.0348938 0)
(-0.058301 0.0562723 0)
(-0.0802405 0.0769361 0)
(-0.103262 0.0952852 0)
(-0.124365 0.108664 0)
(-0.140423 0.114781 0)
(-0.151371 0.114422 0)
(-0.159321 0.110354 0)
(-0.164894 0.103654 0)
(-0.168527 0.0951693 0)
(-0.170819 0.0856658 0)
(-0.172027 0.075566 0)
(-0.172496 0.0652793 0)
(-0.172518 0.0550554 0)
(-0.172206 0.0450756 0)
(-0.171696 0.0354082 0)
(-0.170949 0.0260315 0)
(-0.169965 0.0168979 0)
(-0.168758 0.00789977 0)
(-0.167313 -0.00106606 0)
(-0.165628 -0.0101387 0)
(-0.163713 -0.0194882 0)
(-0.161621 -0.0292966 0)
(-0.159412 -0.0397566 0)
(-0.157158 -0.0510731 0)
(-0.154931 -0.0634488 0)
(-0.152773 -0.0770496 0)
(-0.150663 -0.0919265 0)
(-0.148415 -0.107854 0)
(-0.145481 -0.124092 0)
(-0.140741 -0.138952 0)
(-0.132467 -0.149637 0)
(-0.118657 -0.152122 0)
(-0.096914 -0.138696 0)
(-0.0632953 -0.0988395 0)
(-0.0146989 -0.0242778 0)
(0.00260696 0.0111349 0)
(-0.00666941 -0.0142392 0)
(-0.0185631 0.00620469 0)
(-0.0334363 0.0292364 0)
(-0.0514254 0.0535265 0)
(-0.0717249 0.0772637 0)
(-0.0930436 0.0985235 0)
(-0.113224 0.115082 0)
(-0.129258 0.124355 0)
(-0.139831 0.125724 0)
(-0.147024 0.122254 0)
(-0.151932 0.115768 0)
(-0.154874 0.107127 0)
(-0.156407 0.0972188 0)
(-0.156976 0.0866405 0)
(-0.156877 0.0758042 0)
(-0.15642 0.0650483 0)
(-0.155754 0.0545413 0)
(-0.154951 0.0443797 0)
(-0.154044 0.0345583 0)
(-0.153006 0.0250284 0)
(-0.151838 0.0157196 0)
(-0.150516 0.00653403 0)
(-0.14903 -0.00262581 0)
(-0.147367 -0.0118871 0)
(-0.145546 -0.0213951 0)
(-0.143608 -0.0313068 0)
(-0.141626 -0.0417955 0)
(-0.139694 -0.0530507 0)
(-0.137919 -0.0652728 0)
(-0.136399 -0.0786506 0)
(-0.135181 -0.0933091 0)
(-0.134181 -0.109214 0)
(-0.133038 -0.125997 0)
(-0.130853 -0.142704 0)
(-0.126095 -0.157254 0)
(-0.116835 -0.165785 0)
(-0.101167 -0.162182 0)
(-0.076 -0.136565 0)
(-0.0332614 -0.068336 0)
(0.000268786 2.47414e-05 0)
(-0.00842051 -0.00104021 0)
(-0.0232154 0.0224906 0)
(-0.0400129 0.04707 0)
(-0.0592807 0.0729636 0)
(-0.0794513 0.0973154 0)
(-0.0990002 0.117516 0)
(-0.115616 0.130865 0)
(-0.12657 0.135171 0)
(-0.133667 0.133073 0)
(-0.138271 0.127148 0)
(-0.140991 0.118699 0)
(-0.142192 0.108598 0)
(-0.142435 0.0976676 0)
(-0.142056 0.0864136 0)
(-0.141334 0.0751957 0)
(-0.14047 0.0642413 0)
(-0.139537 0.0536366 0)
(-0.138575 0.0434085 0)
(-0.137578 0.0335151 0)
(-0.136521 0.023896 0)
(-0.135379 0.0144753 0)
(-0.134113 0.0051536 0)
(-0.132702 -0.00416107 0)
(-0.131128 -0.0135746 0)
(-0.129402 -0.0232083 0)
(-0.127558 -0.0331873 0)
(-0.125664 -0.0436557 0)
(-0.123816 -0.0547786 0)
(-0.12214 -0.0667503 0)
(-0.120774 -0.0797894 0)
(-0.119826 -0.0941095 0)
(-0.119311 -0.109839 0)
(-0.119029 -0.126878 0)
(-0.118343 -0.144673 0)
(-0.1159 -0.161787 0)
(-0.109843 -0.17507 0)
(-0.0986808 -0.178604 0)
(-0.0799542 -0.164585 0)
(-0.0501472 -0.114995 0)
(-0.00708174 -0.0150743 0)
(-0.00942383 0.0145058 0)
(-0.0259119 0.0404168 0)
(-0.0435049 0.0657432 0)
(-0.0630014 0.0920517 0)
(-0.0821525 0.115904 0)
(-0.0994985 0.133814 0)
(-0.111457 0.142204 0)
(-0.119324 0.142748 0)
(-0.12408 0.137912 0)
(-0.126909 0.129986 0)
(-0.128197 0.120002 0)
(-0.128384 0.108856 0)
(-0.127957 0.0972682 0)
(-0.127167 0.0856486 0)
(-0.126245 0.0742732 0)
(-0.125299 0.0632683 0)
(-0.12437 0.0526599 0)
(-0.123469 0.0424281 0)
(-0.122569 0.0325098 0)
(-0.121634 0.0228323 0)
(-0.120624 0.0133141 0)
(-0.1195 0.00386557 0)
(-0.118228 -0.00560405 0)
(-0.116794 -0.0151804 0)
(-0.115193 -0.0249616 0)
(-0.113452 -0.035046 0)
(-0.11162 -0.0455434 0)
(-0.109779 -0.056584 0)
(-0.108048 -0.0683304 0)
(-0.106571 -0.0809917 0)
(-0.105494 -0.0948226 0)
(-0.104908 -0.110087 0)
(-0.104759 -0.12695 0)
(-0.10468 -0.145284 0)
(-0.103609 -0.164284 0)
(-0.0996144 -0.181451 0)
(-0.0914711 -0.19069 0)
(-0.0770102 -0.185736 0)
(-0.0541561 -0.150242 0)
(-0.0158646 -0.0432197 0)
(-0.009863 0.0312387 0)
(-0.026885 0.0590777 0)
(-0.0442851 0.0843829 0)
(-0.0631342 0.110251 0)
(-0.0808483 0.132526 0)
(-0.094799 0.146426 0)
(-0.10341 0.150637 0)
(-0.109427 0.148136 0)
(-0.112523 0.14106 0)
(-0.114245 0.131514 0)
(-0.114684 0.120369 0)
(-0.114387 0.108508 0)
(-0.113705 0.0965266 0)
(-0.112843 0.0847399 0)
(-0.111965 0.0733341 0)
(-0.111127 0.062358 0)
(-0.110347 0.0517934 0)
(-0.10961 0.0415859 0)
(-0.10888 0.0316577 0)
(-0.108115 0.0219279 0)
(-0.107271 0.0123148 0)
(-0.10631 0.00273722 0)
(-0.105204 -0.00688897 0)
(-0.103932 -0.016636 0)
(-0.102486 -0.0265822 0)
(-0.10088 -0.036806 0)
(-0.0991438 -0.0473894 0)
(-0.0973373 -0.0584299 0)
(-0.0955541 -0.0700557 0)
(-0.0939234 -0.0824492 0)
(-0.0925962 -0.0958692 0)
(-0.0917075 -0.110651 0)
(-0.091306 -0.127143 0)
(-0.0912352 -0.14553 0)
(-0.0908015 -0.165581 0)
(-0.088225 -0.185864 0)
(-0.0819083 -0.200121 0)
(-0.0704718 -0.202303 0)
(-0.0505815 -0.17947 0)
(-0.0188703 -0.0927634 0)
(-0.009626 0.0479194 0)
(-0.0262678 0.0774309 0)
(-0.0427959 0.102134 0)
(-0.0603252 0.126805 0)
(-0.0762432 0.146837 0)
(-0.0866411 0.156154 0)
(-0.0936436 0.157204 0)
(-0.0979801 0.152016 0)
(-0.100079 0.143133 0)
(-0.101133 0.132288 0)
(-0.101153 0.120283 0)
(-0.100709 0.107949 0)
(-0.100027 0.0957472 0)
(-0.0992787 0.0839084 0)
(-0.0985678 0.0725365 0)
(-0.0979205 0.0616226 0)
(-0.0973358 0.0511131 0)
(-0.0967847 0.0409295 0)
(-0.0962282 0.0309856 0)
(-0.095627 0.0211973 0)
(-0.0949417 0.0114865 0)
(-0.0941394 0.00177906 0)
(-0.0931972 -0.00800118 0)
(-0.0920956 -0.0179187 0)
(-0.0908234 -0.0280378 0)
(-0.0893829 -0.038423 0)
(-0.0877877 -0.0491356 0)
(-0.0860727 -0.0602456 0)
(-0.0843006 -0.0718459 0)
(-0.0825705 -0.0840816 0)
(-0.0810178 -0.0971899 0)
(-0.0797933 -0.111535 0)
(-0.0790086 -0.12759 0)
(-0.0786403 -0.145796 0)
(-0.0783306 -0.16631 0)
(-0.0767183 -0.188533 0)
(-0.0714011 -0.208197 0)
(-0.0625658 -0.215339 0)
(-0.0454096 -0.202027 0)
(-0.0158854 -0.126509 0)
(-0.0088886 0.0639291 0)
(-0.0244354 0.0948723 0)
(-0.0396376 0.118625 0)
(-0.0557299 0.141817 0)
(-0.0689682 0.158333 0)
(-0.076898 0.163977 0)
(-0.082746 0.162282 0)
(-0.085876 0.154904 0)
(-0.087417 0.144556 0)
(-0.0880984 0.132681 0)
(-0.087985 0.120052 0)
(-0.0875852 0.107408 0)
(-0.0870366 0.095092 0)
(-0.0864808 0.0832586 0)
(-0.0859768 0.0719426 0)
(-0.0855323 0.0610915 0)
(-0.0851332 0.0506246 0)
(-0.0847474 0.0404492 0)
(-0.0843397 0.0304757 0)
(-0.0838777 0.0206215 0)
(-0.0833304 0.0108125 0)
(-0.0826718 0.000980706 0)
(-0.0818859 -0.00894359 0)
(-0.0809551 -0.019021 0)
(-0.0798673 -0.0293084 0)
(-0.0786172 -0.0398616 0)
(-0.0772051 -0.0507302 0)
(-0.0756441 -0.0619648 0)
(-0.0739676 -0.0736297 0)
(-0.0722403 -0.0858317 0)
(-0.0705674 -0.0987684 0)
(-0.069092 -0.112791 0)
(-0.0679592 -0.128443 0)
(-0.0672332 -0.146377 0)
(-0.0667498 -0.167062 0)
(-0.0655953 -0.190426 0)
(-0.0613097 -0.214593 0)
(-0.0539827 -0.226813 0)
(-0.0397384 -0.222366 0)
(-0.0140179 -0.159761 0)
(-0.00776456 0.0784987 0)
(-0.0218159 0.110856 0)
(-0.0353681 0.133455 0)
(-0.0497165 0.154763 0)
(-0.0601621 0.1675 0)
(-0.0664739 0.170416 0)
(-0.0713979 0.1663 0)
(-0.0736843 0.157146 0)
(-0.0749321 0.145612 0)
(-0.0754332 0.132931 0)
(-0.075349 0.119851 0)
(-0.0750821 0.107001 0)
(-0.0747187 0.0946272 0)
(-0.0743693 0.0828182 0)
(-0.0740621 0.0715528 0)
(-0.0737947 0.0607464 0)
(-0.0735483 0.0502998 0)
(-0.0732943 0.0401136 0)
(-0.0730051 0.0300984 0)
(-0.0726571 0.0201749 0)
(-0.0722284 0.0102731 0)
(-0.0717006 0.000328901 0)
(-0.071063 -0.00972276 0)
(-0.0703014 -0.0199414 0)
(-0.0694038 -0.0303813 0)
(-0.0683602 -0.0410948 0)
(-0.067161 -0.052126 0)
(-0.065803 -0.0635137 0)
(-0.0642953 -0.0753012 0)
(-0.0626714 -0.0875616 0)
(-0.0610036 -0.100448 0)
(-0.0594118 -0.114272 0)
(-0.0580496 -0.129593 0)
(-0.0570385 -0.147207 0)
(-0.0563313 -0.167893 0)
(-0.0554085 -0.192048 0)
(-0.0523405 -0.218646 0)
(-0.0455165 -0.23697 0)
(-0.0345725 -0.237884 0)
(-0.0114896 -0.184913 0)
(-0.0065326 0.0913711 0)
(-0.0186601 0.125 0)
(-0.0303522 0.146296 0)
(-0.0426851 0.165507 0)
(-0.0506557 0.174959 0)
(-0.0561803 0.175747 0)
(-0.0599852 0.169533 0)
(-0.061756 0.158963 0)
(-0.0628331 0.146476 0)
(-0.0632691 0.133171 0)
(-0.0632877 0.119761 0)
(-0.0631792 0.106767 0)
(-0.0630017 0.0943595 0)
(-0.0628356 0.0825707 0)
(-0.0626913 0.0713366 0)
(-0.0625627 0.0605506 0)
(-0.0624322 0.0501024 0)
(-0.0622783 0.0398903 0)
(-0.0620825 0.029827 0)
(-0.0618294 0.0198369 0)
(-0.0615056 0.00985307 0)
(-0.0610998 -0.000186481 0)
(-0.0606049 -0.0103442 0)
(-0.060011 -0.0206802 0)
(-0.0593068 -0.0312501 0)
(-0.0584797 -0.0421068 0)
(-0.0575143 -0.0532936 0)
(-0.0563955 -0.0648445 0)
(-0.0551145 -0.0767887 0)
(-0.0536797 -0.089172 0)
(-0.0521336 -0.102103 0)
(-0.0505684 -0.115843 0)
(-0.0491293 -0.13092 0)
(-0.0479702 -0.148214 0)
(-0.0471234 -0.168786 0)
(-0.0462953 -0.193405 0)
(-0.0440484 -0.221836 0)
(-0.0380193 -0.246129 0)
(-0.030164 -0.252107 0)
(-0.0100198 -0.208493 0)
(-0.00502485 0.101864 0)
(-0.0151643 0.137012 0)
(-0.0249947 0.157197 0)
(-0.0351506 0.174141 0)
(-0.0411841 0.181046 0)
(-0.0459021 0.180027 0)
(-0.0487971 0.17216 0)
(-0.050244 0.160483 0)
(-0.0512048 0.147245 0)
(-0.0516362 0.133461 0)
(-0.0517736 0.119804 0)
(-0.0518127 0.106701 0)
(-0.0517942 0.0942638 0)
(-0.051773 0.0824795 0)
(-0.0517514 0.0712539 0)
(-0.0517237 0.0604659 0)
(-0.0516772 0.0499994 0)
(-0.0515989 0.0397532 0)
(-0.0514783 0.0296421 0)
(-0.0513077 0.0195936 0)
(-0.0510808 0.0095428 0)
(-0.0507915 -0.00057164 0)
(-0.0504364 -0.0108112 0)
(-0.0500087 -0.0212379 0)
(-0.049499 -0.0319108 0)
(-0.0488943 -0.042886 0)
(-0.0481762 -0.0542105 0)
(-0.0473222 -0.0659181 0)
(-0.0463105 -0.0780307 0)
(-0.0451306 -0.0905727 0)
(-0.0438003 -0.103614 0)
(-0.0423858 -0.117357 0)
(-0.0410186 -0.132279 0)
(-0.0398757 -0.149282 0)
(-0.0390635 -0.16964 0)
(-0.0383801 -0.194449 0)
(-0.0368107 -0.223868 0)
(-0.032285 -0.252931 0)
(-0.0254361 -0.263711 0)
(-0.00841176 -0.226993 0)
(-0.00368613 0.110306 0)
(-0.0115448 0.146901 0)
(-0.0195327 0.16613 0)
(-0.0274972 0.180889 0)
(-0.031908 0.185872 0)
(-0.0358226 0.183417 0)
(-0.0379803 0.174296 0)
(-0.0391912 0.161778 0)
(-0.040055 0.147963 0)
(-0.0405033 0.133816 0)
(-0.0407443 0.11997 0)
(-0.0409021 0.106775 0)
(-0.0410047 0.0943018 0)
(-0.0410876 0.0825038 0)
(-0.0411509 0.0712663 0)
(-0.0411921 0.0604598 0)
(-0.0412049 0.0499658 0)
(-0.0411844 0.0396839 0)
(-0.0411272 0.0295312 0)
(-0.0410319 0.0194369 0)
(-0.0408973 0.009337 0)
(-0.040722 -0.000829962 0)
(-0.0405049 -0.011126 0)
(-0.0402425 -0.0216152 0)
(-0.0399277 -0.0323614 0)
(-0.0395485 -0.0434259 0)
(-0.0390861 -0.0548619 0)
(-0.0385146 -0.0667075 0)
(-0.0378044 -0.0789823 0)
(-0.036931 -0.0916955 0)
(-0.035892 -0.104882 0)
(-0.0347295 -0.118685 0)
(-0.0335543 -0.133516 0)
(-0.0325482 -0.150258 0)
(-0.0318702 -0.170344 0)
(-0.0314006 -0.195227 0)
(-0.0303955 -0.22553 0)
(-0.0271073 -0.258366 0)
(-0.0222378 -0.274033 0)
(-0.007303 -0.244257 0)
(-0.00200796 0.115987 0)
(-0.00785819 0.154503 0)
(-0.0139832 0.17301 0)
(-0.0198904 0.185929 0)
(-0.02297 0.189577 0)
(-0.0260379 0.186027 0)
(-0.0275795 0.176015 0)
(-0.0285793 0.162887 0)
(-0.0293459 0.148642 0)
(-0.0298066 0.134224 0)
(-0.0301218 0.12023 0)
(-0.0303636 0.106952 0)
(-0.0305485 0.0944336 0)
(-0.0306985 0.0826056 0)
(-0.0308151 0.0713414 0)
(-0.0309 0.0605069 0)
(-0.0309539 0.0499828 0)
(-0.0309786 0.03967 0)
(-0.0309769 0.0294864 0)
(-0.0309524 0.0193622 0)
(-0.0309078 0.00923316 0)
(-0.0308453 -0.000962934 0)
(-0.0307659 -0.0112894 0)
(-0.0306685 -0.0218126 0)
(-0.0305485 -0.0326012 0)
(-0.0303963 -0.0437226 0)
(-0.0301946 -0.0552378 0)
(-0.0299174 -0.0671925 0)
(-0.0295315 -0.0796087 0)
(-0.0290037 -0.0924867 0)
(-0.0283168 -0.105832 0)
(-0.0274931 -0.119735 0)
(-0.0266242 -0.134526 0)
(-0.0258842 -0.151032 0)
(-0.0254586 -0.170766 0)
(-0.0253041 -0.195567 0)
(-0.0249364 -0.226628 0)
(-0.0228508 -0.261782 0)
(-0.0191423 -0.282236 0)
(-0.00617338 -0.258271 0)
(-0.000841131 0.119755 0)
(-0.00424295 0.159939 0)
(-0.00848209 0.177907 0)
(-0.0124429 0.18942 0)
(-0.014408 0.192265 0)
(-0.0165571 0.187905 0)
(-0.0175709 0.177337 0)
(-0.0183566 0.163812 0)
(-0.0190142 0.149271 0)
(-0.0194678 0.134662 0)
(-0.0198239 0.12055 0)
(-0.0201152 0.107195 0)
(-0.0203475 0.0946233 0)
(-0.0205341 0.0827538 0)
(-0.020679 0.0714539 0)
(-0.0207885 0.0605881 0)
(-0.0208695 0.0500372 0)
(-0.0209302 0.0397026 0)
(-0.0209783 0.0295025 0)
(-0.0210213 0.0193666 0)
(-0.0210653 0.00923004 0)
(-0.0211151 -0.000971014 0)
(-0.0211735 -0.0113015 0)
(-0.0212415 -0.0218302 0)
(-0.0213171 -0.0326297 0)
(-0.0213932 -0.043774 0)
(-0.0214553 -0.0553324 0)
(-0.02148 -0.0673598 0)
(-0.021434 -0.0798847 0)
(-0.0212801 -0.0929034 0)
(-0.0209906 -0.106399 0)
(-0.0205708 -0.120411 0)
(-0.0200924 -0.135194 0)
(-0.0197143 -0.151493 0)
(-0.0196368 -0.170851 0)
(-0.0198962 -0.195437 0)
(-0.020193 -0.227007 0)
(-0.0191885 -0.26434 0)
(-0.0169427 -0.289353 0)
(-0.00534147 -0.271378 0)
(0.000997585 0.120614 0)
(-0.000629598 0.163173 0)
(-0.00302002 0.1809 0)
(-0.00521309 0.191516 0)
(-0.00614411 0.193905 0)
(-0.00737334 0.189107 0)
(-0.00790015 0.178287 0)
(-0.0084527 0.164553 0)
(-0.00898276 0.149835 0)
(-0.00940316 0.1351 0)
(-0.00976742 0.120899 0)
(-0.010078 0.10747 0)
(-0.0103294 0.0948411 0)
(-0.0105287 0.0829229 0)
(-0.0106824 0.0715836 0)
(-0.0108014 0.0606884 0)
(-0.0108987 0.0501184 0)
(-0.0109876 0.0397749 0)
(-0.0110803 0.0295753 0)
(-0.0111878 0.0194481 0)
(-0.0113188 0.00932687 0)
(-0.0114805 -0.000854022 0)
(-0.0116771 -0.0111618 0)
(-0.0119116 -0.0216673 0)
(-0.0121839 -0.0324467 0)
(-0.0124895 -0.0435793 0)
(-0.012818 -0.0551424 0)
(-0.0131502 -0.0672011 0)
(-0.0134554 -0.079793 0)
(-0.0136968 -0.0929161 0)
(-0.013841 -0.106537 0)
(-0.0138794 -0.120653 0)
(-0.0138639 -0.135439 0)
(-0.0139344 -0.151548 0)
(-0.014295 -0.170506 0)
(-0.0150585 -0.194763 0)
(-0.0160358 -0.226596 0)
(-0.0159996 -0.265494 0)
(-0.0149298 -0.294818 0)
(-0.00451862 -0.282272 0)
(0.00215321 0.119307 0)
(0.00282567 0.164255 0)
(0.00230989 0.182115 0)
(0.00177056 0.192326 0)
(0.0018837 0.194583 0)
(0.00157747 0.189621 0)
(0.00150801 0.17881 0)
(0.00120797 0.165069 0)
(0.000829601 0.150301 0)
(0.00047154 0.135509 0)
(0.000125355 0.121247 0)
(-0.000178501 0.107754 0)
(-0.000422856 0.0950645 0)
(-0.000615813 0.0830946 0)
(-0.000763428 0.0717161 0)
(-0.000880599 0.0607967 0)
(-0.000985286 0.050218 0)
(-0.00109549 0.0398807 0)
(-0.00122768 0.0297007 0)
(-0.00139594 0.0196042 0)
(-0.00161177 0.00952258 0)
(-0.00188427 -0.000611684 0)
(-0.00221968 -0.0108685 0)
(-0.00262223 -0.0213209 0)
(-0.00309315 -0.0320482 0)
(-0.00363064 -0.0431349 0)
(-0.00422828 -0.0546648 0)
(-0.00487078 -0.0667117 0)
(-0.00553429 -0.0793225 0)
(-0.00618678 -0.0925014 0)
(-0.00679264 -0.106207 0)
(-0.00733153 -0.1204 0)
(-0.00783677 -0.135185 0)
(-0.00842681 -0.151119 0)
(-0.00930078 -0.169675 0)
(-0.0106385 -0.193511 0)
(-0.0123488 -0.225468 0)
(-0.0132083 -0.26582 0)
(-0.013449 -0.299393 0)
(-0.00388154 -0.292518 0)
(0.00340182 0.115916 0)
(0.00625306 0.163279 0)
(0.00751054 0.181722 0)
(0.00851924 0.191856 0)
(0.00972255 0.194151 0)
(0.0102935 0.189546 0)
(0.0107061 0.178962 0)
(0.0107025 0.165358 0)
(0.0105028 0.150649 0)
(0.0102339 0.135858 0)
(0.00993652 0.121564 0)
(0.00966236 0.108022 0)
(0.00943961 0.0952751 0)
(0.00926741 0.0832533 0)
(0.00913804 0.0718385 0)
(0.00903291 0.0609024 0)
(0.00892954 0.0503278 0)
(0.00880547 0.0400138 0)
(0.00864025 0.0298739 0)
(0.00841647 0.0198314 0)
(0.00811997 0.00981501 0)
(0.00773918 -0.000245758 0)
(0.00726614 -0.0104224 0)
(0.00669567 -0.0207909 0)
(0.00602439 -0.031433 0)
(0.00525146 -0.0424366 0)
(0.00438102 -0.0538918 0)
(0.00342328 -0.065881 0)
(0.00239372 -0.0784618 0)
(0.00131874 -0.0916441 0)
(0.000229536 -0.105381 0)
(-0.000847024 -0.119609 0)
(-0.00192571 -0.134373 0)
(-0.00310044 -0.150128 0)
(-0.0045566 -0.168274 0)
(-0.00651872 -0.191612 0)
(-0.00900792 -0.223532 0)
(-0.0106345 -0.264988 0)
(-0.0121195 -0.302692 0)
(-0.0032396 -0.301199 0)
(0.00476874 0.109888 0)
(0.0096869 0.160227 0)
(0.0126139 0.179729 0)
(0.0150584 0.190129 0)
(0.0173647 0.19273 0)
(0.0188027 0.188769 0)
(0.0197566 0.178718 0)
(0.0200863 0.165391 0)
(0.0200972 0.15085 0)
(0.0199516 0.136128 0)
(0.0197321 0.121834 0)
(0.0195095 0.108253 0)
(0.0193252 0.0954535 0)
(0.0191875 0.0833852 0)
(0.0190878 0.0719405 0)
(0.0190047 0.0609973 0)
(0.0189118 0.0504401 0)
(0.0187822 0.0401667 0)
(0.0185918 0.030088 0)
(0.0183195 0.0201239 0)
(0.0179481 0.0101998 0)
(0.0174646 0.000242129 0)
(0.016858 -0.00982388 0)
(0.0161209 -0.0200769 0)
(0.0152486 -0.0306008 0)
(0.0142386 -0.0414861 0)
(0.0130917 -0.0528253 0)
(0.0118106 -0.0647058 0)
(0.0104047 -0.0771967 0)
(0.00889498 -0.0903196 0)
(0.00730397 -0.104029 0)
(0.00565729 -0.118242 0)
(0.0039564 -0.132952 0)
(0.00213582 -0.148515 0)
(3.12749e-05 -0.166241 0)
(-0.00262008 -0.18903 0)
(-0.00597049 -0.220851 0)
(-0.00826342 -0.263304 0)
(-0.0110995 -0.305268 0)
(-0.00268516 -0.309393 0)
(0.00610436 0.101669 0)
(0.0130637 0.155187 0)
(0.0176139 0.176218 0)
(0.0214119 0.187206 0)
(0.0248838 0.190269 0)
(0.0270309 0.187234 0)
(0.0286527 0.178084 0)
(0.0293883 0.165143 0)
(0.0296564 0.150866 0)
(0.0296774 0.136281 0)
(0.0295695 0.122026 0)
(0.0294269 0.108428 0)
(0.029304 0.0955872 0)
(0.0292172 0.0834787 0)
(0.0291596 0.0720111 0)
(0.0291089 0.0610708 0)
(0.0290358 0.0505449 0)
(0.02891 0.0403303 0)
(0.0287032 0.0303346 0)
(0.0283908 0.0204742 0)
(0.0279525 0.0106705 0)
(0.0273723 0.000846709 0)
(0.026637 -0.00907631 0)
(0.025737 -0.0191789 0)
(0.0246656 -0.0295472 0)
(0.0234173 -0.0402744 0)
(0.0219879 -0.0514561 0)
(0.0203763 -0.0631834 0)
(0.0185872 -0.0755274 0)
(0.0166269 -0.0885179 0)
(0.0145098 -0.102122 0)
(0.0122628 -0.116255 0)
(0.00989445 -0.130867 0)
(0.00737399 -0.146217 0)
(0.00455993 -0.163504 0)
(0.00115777 -0.185687 0)
(-0.00314222 -0.217327 0)
(-0.00601833 -0.260728 0)
(-0.0104074 -0.306484 0)
(-0.00184931 -0.316521 0)
(0.00733969 0.0912346 0)
(0.0163242 0.14815 0)
(0.0224706 0.171208 0)
(0.0275499 0.183103 0)
(0.0320856 0.187036 0)
(0.0350773 0.184784 0)
(0.0373627 0.176881 0)
(0.0386155 0.164544 0)
(0.0392048 0.150644 0)
(0.0394462 0.13627 0)
(0.0394982 0.122106 0)
(0.0394738 0.10852 0)
(0.0394412 0.0956552 0)
(0.0394268 0.083518 0)
(0.0394281 0.0720378 0)
(0.0394235 0.0611122 0)
(0.0393824 0.0506327 0)
(0.0392715 0.0404954 0)
(0.039059 0.030605 0)
(0.0387169 0.0208739 0)
(0.038221 0.0112194 0)
(0.0375524 0.00156055 0)
(0.036695 -0.00818514 0)
(0.0356365 -0.0181006 0)
(0.0343673 -0.028274 0)
(0.0328789 -0.0387994 0)
(0.0311637 -0.0497737 0)
(0.0292158 -0.0612912 0)
(0.0270282 -0.0734295 0)
(0.0245979 -0.0862239 0)
(0.0219335 -0.0996455 0)
(0.019051 -0.113614 0)
(0.0159643 -0.128064 0)
(0.0126897 -0.143176 0)
(0.00910483 -0.160013 0)
(0.00488618 -0.181558 0)
(-0.000454043 -0.212977 0)
(-0.00388165 -0.257372 0)
(-0.00984518 -0.306883 0)
(-0.00112731 -0.323323 0)
(0.00841 0.0786885 0)
(0.0193574 0.139213 0)
(0.0270766 0.164775 0)
(0.0333866 0.177883 0)
(0.0388285 0.182913 0)
(0.0429057 0.181533 0)
(0.045822 0.174969 0)
(0.0477222 0.163508 0)
(0.0487323 0.150119 0)
(0.0492714 0.136041 0)
(0.0495483 0.122024 0)
(0.0496955 0.10849 0)
(0.0497958 0.0956284 0)
(0.0498866 0.0834817 0)
(0.0499719 0.072004 0)
(0.0500333 0.0611078 0)
(0.0500407 0.0506908 0)
(0.0499592 0.0406499 0)
(0.0497542 0.0308876 0)
(0.0493945 0.0213121 0)
(0.0488522 0.0118366 0)
(0.0481055 0.00237589 0)
(0.0471346 -0.00715646 0)
(0.0459236 -0.0168455 0)
(0.0444597 -0.0267813 0)
(0.0427304 -0.0370594 0)
(0.0407235 -0.0477766 0)
(0.0384267 -0.0590259 0)
(0.0358253 -0.0708849 0)
(0.0329061 -0.0833988 0)
(0.0296598 -0.0965525 0)
(0.0260972 -0.110276 0)
(0.0222447 -0.124493 0)
(0.0181496 -0.13932 0)
(0.0137275 -0.155699 0)
(0.00861601 -0.17659 0)
(0.00219194 -0.207755 0)
(-0.00168401 -0.25309 0)
(-0.00911384 -0.306208 0)
(-0.000203976 -0.329354 0)
(0.0091321 0.064111 0)
(0.0219926 0.128323 0)
(0.0312085 0.156868 0)
(0.0387436 0.171547 0)
(0.0451344 0.177787 0)
(0.0502121 0.177565 0)
(0.0539424 0.172214 0)
(0.0565936 0.161901 0)
(0.0581693 0.149188 0)
(0.0591231 0.135508 0)
(0.0597195 0.12171 0)
(0.0601177 0.108281 0)
(0.0604151 0.0954623 0)
(0.0606612 0.0833352 0)
(0.0608692 0.0718831 0)
(0.0610268 0.0610364 0)
(0.0611064 0.0507017 0)
(0.0610739 0.0407789 0)
(0.0608933 0.0311688 0)
(0.0605311 0.0217763 0)
(0.0599557 0.012511 0)
(0.0591426 0.00328297 0)
(0.0580682 -0.00599798 0)
(0.0567118 -0.0154181 0)
(0.0550569 -0.0250698 0)
(0.0530859 -0.0350494 0)
(0.0507806 -0.045452 0)
(0.0481215 -0.0563693 0)
(0.0450847 -0.0678777 0)
(0.0416442 -0.080025 0)
(0.0377794 -0.0928083 0)
(0.0334961 -0.106184 0)
(0.0288132 -0.12009 0)
(0.0238277 -0.134584 0)
(0.0184709 -0.150477 0)
(0.0123533 -0.170707 0)
(0.0048493 -0.20162 0)
(0.000562446 -0.248072 0)
(-0.00898529 -0.304643 0)
(0.000654161 -0.335208 0)
(0.00923799 0.0479934 0)
(0.0238723 0.115674 0)
(0.0345888 0.14754 0)
(0.0433812 0.164102 0)
(0.050785 0.171637 0)
(0.0568334 0.172687 0)
(0.0615478 0.168571 0)
(0.0650652 0.159559 0)
(0.0673865 0.147705 0)
(0.0689194 0.134552 0)
(0.0699728 0.121067 0)
(0.0707356 0.107814 0)
(0.0713233 0.0950923 0)
(0.0717995 0.083028 0)
(0.072189 0.0716358 0)
(0.0724883 0.0608674 0)
(0.0726758 0.0506413 0)
(0.0727204 0.0408622 0)
(0.0725868 0.0314315 0)
(0.0722411 0.0222516 0)
(0.0716485 0.0132298 0)
(0.0707822 0.00427091 0)
(0.0696148 -0.00471794 0)
(0.0681201 -0.0138234 0)
(0.0662767 -0.02314 0)
(0.0640613 -0.032764 0)
(0.0614479 -0.0427877 0)
(0.0584084 -0.0532994 0)
(0.0549086 -0.0643725 0)
(0.050911 -0.0760587 0)
(0.0463822 -0.0883693 0)
(0.0413226 -0.101288 0)
(0.0357468 -0.114776 0)
(0.0297922 -0.12888 0)
(0.0233996 -0.144261 0)
(0.016217 -0.16378 0)
(0.00754344 -0.194329 0)
(0.0029247 -0.242018 0)
(-0.00878469 -0.302254 0)
(0.00179058 -0.340501 0)
(0.00784211 0.0309081 0)
(0.0245168 0.101102 0)
(0.0368034 0.136556 0)
(0.0469713 0.155476 0)
(0.0554953 0.164492 0)
(0.0625619 0.166778 0)
(0.0683482 0.163938 0)
(0.0728981 0.156293 0)
(0.0761759 0.145468 0)
(0.0785045 0.132998 0)
(0.0802045 0.119947 0)
(0.0814921 0.106966 0)
(0.0825031 0.0944203 0)
(0.0833179 0.0824819 0)
(0.0839756 0.0712012 0)
(0.0844847 0.0605538 0)
(0.084833 0.0504731 0)
(0.0849956 0.0408717 0)
(0.084941 0.0316534 0)
(0.0846362 0.0227201 0)
(0.0840464 0.0139785 0)
(0.0831415 0.00532819 0)
(0.0818916 -0.00332412 0)
(0.0802644 -0.0120645 0)
(0.0782327 -0.0209897 0)
(0.0757666 -0.0301942 0)
(0.0728308 -0.039766 0)
(0.0693867 -0.0497894 0)
(0.065389 -0.0603335 0)
(0.0607894 -0.071454 0)
(0.0555427 -0.0831764 0)
(0.0496471 -0.0955209 0)
(0.0431097 -0.108482 0)
(0.0361001 -0.122113 0)
(0.0285721 -0.136948 0)
(0.0202297 -0.155754 0)
(0.0103018 -0.185947 0)
(0.00534778 -0.234859 0)
(-0.00906852 -0.299187 0)
(0.00304831 -0.345497 0)
(0.00414278 0.0159467 0)
(0.0230551 0.0851069 0)
(0.0374256 0.123879 0)
(0.0491606 0.1455 0)
(0.0589369 0.156282 0)
(0.0670945 0.159779 0)
(0.0740285 0.158152 0)
(0.0797895 0.151891 0)
(0.0842616 0.142244 0)
(0.0876486 0.130629 0)
(0.0902383 0.118163 0)
(0.092262 0.10558 0)
(0.0938756 0.0933144 0)
(0.0951781 0.0815894 0)
(0.0962257 0.0704933 0)
(0.0970421 0.0600282 0)
(0.0976279 0.0501451 0)
(0.0979675 0.0407672 0)
(0.0980377 0.0318037 0)
(0.097807 0.0231586 0)
(0.0972464 0.0147396 0)
(0.0963198 0.00644241 0)
(0.0949971 -0.00182302 0)
(0.0932414 -0.0101421 0)
(0.0910184 -0.0186131 0)
(0.0882905 -0.0273261 0)
(0.0850121 -0.0363633 0)
(0.0811329 -0.045805 0)
(0.0765966 -0.0557155 0)
(0.0713448 -0.0661569 0)
(0.0653234 -0.0771698 0)
(0.0585305 -0.0888169 0)
(0.0509648 -0.101128 0)
(0.0428226 -0.114195 0)