/*--------------------------------*- C++ -*----------------------------------*\
  =========                 |
  \\      /  F ield         | OpenFOAM: The Open Source CFD Toolbox
   \\    /   O peration     | Website:  https://openfoam.org
    \\  /    A nd           | Version:  12
     \\/     M anipulation  |
\*---------------------------------------------------------------------------*/
FoamFile
{
    format      ascii;
    class       volScalarField;
    location    "1.5";
    object      epsilon;
}
// * * * * * * * * * * * * * * * * * * * * * * * * * * * * * * * * * * * * * //

dimensions      [0 2 -3 0 0 0 0];

internalField   nonuniform List<scalar> 
1600
(
2.05986e-05
9.00308e-05
0.000169346
0.000234799
0.000286933
0.000328839
0.000362714
0.000390254
0.00041308
0.000432853
0.000451268
0.000470022
0.000490836
0.000515539
0.000546238
0.000585508
0.000636517
0.000703004
0.000788982
0.000897848
0.00103122
0.00118765
0.00136242
0.00155007
0.00175015
0.00197918
0.00220603
0.00237437
0.00245555
0.00247753
0.00236944
0.0021487
0.00184514
0.00148248
0.00111004
0.000772677
0.000491392
0.00027988
0.000122626
2.68098e-05
9.57059e-05
9.37302e-05
0.00013694
0.00018022
0.000217532
0.000248717
0.000274999
0.00029796
0.000319285
0.000340673
0.000363773
0.000390102
0.000420958
0.00045735
0.000499986
0.000549356
0.000605907
0.000670281
0.00074329
0.00082608
0.000919843
0.00102487
0.00114089
0.00126908
0.00141032
0.00156131
0.00170738
0.00181471
0.0018617
0.00186853
0.00178013
0.00159181
0.00133258
0.00103728
0.000751775
0.00051408
0.000336692
0.000209898
0.000118697
0.000113709
0.000209096
0.000143973
0.000171825
0.000209537
0.000245005
0.00027585
0.000302418
0.000326004
0.000348214
0.000370648
0.000394697
0.000421402
0.000451393
0.000485016
0.000522721
0.000565671
0.000615345
0.000674723
0.000748178
0.000840277
0.000954955
0.00109681
0.00127002
0.00147695
0.00171456
0.00196927
0.0022217
0.00244308
0.00257833
0.00262641
0.00257997
0.00235472
0.00198713
0.00153358
0.00107307
0.000688914
0.00042435
0.000261161
0.000165421
0.000216269
0.000329762
0.000199658
0.000214487
0.000247883
0.000282084
0.000313285
0.000341155
0.000366592
0.000390934
0.000415509
0.000441343
0.000469028
0.000498821
0.000531063
0.000566885
0.000608925
0.000662666
0.000735077
0.00083388
0.000968319
0.00114835
0.00138125
0.00166762
0.00200124
0.00236763
0.00275031
0.00312802
0.00345962
0.00369651
0.00380584
0.00382137
0.00361918
0.00316213
0.00249801
0.00176061
0.00108483
0.00060814
0.000349045
0.000223194
0.000291994
0.000446326
0.000252102
0.000254578
0.000284056
0.000317016
0.000348539
0.000377828
0.000405436
0.000432408
0.000459801
0.000488403
0.00051871
0.000551263
0.000587368
0.000630034
0.000684787
0.000760005
0.000866836
0.00101853
0.0012276
0.0015023
0.0018422
0.00223463
0.0026521
0.00305908
0.00342223
0.00372288
0.0039736
0.00418989
0.00435591
0.00443799
0.00445963
0.00429255
0.00380927
0.0028679
0.00181857
0.000930935
0.00046587
0.000277042
0.000334801
0.000554043
0.000299404
0.000291238
0.000316929
0.000348644
0.000380356
0.000410929
0.000440671
0.000470409
0.000501034
0.000533302
0.000567972
0.000606357
0.000651245
0.00070794
0.000785072
0.000894825
0.00105225
0.00127271
0.00156641
0.00192997
0.00233818
0.00274428
0.00309631
0.00336512
0.00356458
0.00372392
0.00387401
0.00402653
0.0041969
0.0043833
0.00454027
0.00460884
0.00453991
0.00413359
0.00298567
0.0015515
0.000638962
0.000324099
0.000333772
0.000650597
0.000341629
0.000324018
0.000346214
0.000376765
0.000408596
0.00044031
0.000472073
0.000504608
0.000538794
0.000575578
0.000616278
0.000663302
0.000721197
0.000797736
0.000904649
0.0010574
0.00127287
0.00156307
0.00192377
0.00232191
0.00269442
0.00297307
0.00313325
0.00322961
0.00328835
0.00335342
0.00345432
0.0035935
0.00376558
0.00396662
0.00419684
0.00445919
0.00463011
0.00468016
0.00427456
0.0027096
0.000977772
0.000368629
0.000293433
0.000735112
0.000378978
0.000352782
0.000371815
0.000401321
0.000433261
0.000466015
0.000499695
0.000535037
0.00057306
0.000615091
0.00066321
0.000721086
0.000795089
0.000895322
0.00103601
0.00123405
0.00150358
0.00184425
0.00222559
0.00258211
0.00282686
0.00293559
0.00297652
0.00298376
0.00302339
0.00312224
0.00326166
0.00343529
0.0036354
0.00385678
0.00408323
0.00432494
0.00458127
0.00478066
0.00484101
0.00427689
0.00180048
0.000459181
0.000221097
0.000807517
0.00041163
0.000377593
0.000393741
0.000422306
0.000454359
0.000488082
0.000523587
0.000561716
0.000603745
0.000651508
0.000707934
0.000777956
0.000869578
0.000994701
0.00116874
0.00140716
0.00171627
0.00207781
0.00243828
0.00268802
0.00278159
0.00279664
0.00277767
0.00278938
0.00287299
0.00300743
0.0031782
0.00338176
0.00361408
0.00386199
0.00411417
0.00436171
0.00460346
0.0048535
0.00499619
0.00501929
0.00374674
0.000881652
0.000205655
0.000868059
0.000439819
0.000398631
0.000412095
0.000439773
0.000471926
0.000506543
0.000543763
0.000584591
0.000630625
0.000684245
0.000749208
0.000831535
0.000940459
0.0010888
0.00129151
0.00155987
0.00188927
0.00224426
0.00254006
0.00265876
0.00267628
0.00263124
0.00261815
0.00265994
0.00277597
0.00293028
0.00312159
0.00335144
0.0036209
0.00392792
0.00427384
0.00458892
0.00485613
0.00505789
0.0052158
0.00528867
0.00502869
0.00208472
0.0004162
0.000917183
0.000463855
0.000416137
0.000427052
0.000453845
0.000486047
0.00052145
0.000560227
0.00060356
0.000653375
0.000712566
0.000785579
0.000879229
0.0010034
0.00117086
0.00139456
0.00168001
0.00201175
0.00234066
0.00253414
0.00258405
0.00254066
0.0024941
0.00248997
0.00255779
0.00268301
0.00283869
0.00303265
0.00327424
0.00357303
0.00393165
0.00434025
0.00480094
0.0052019
0.0054843
0.0056077
0.00564307
0.00547284
0.00410289
0.00119737
0.000955612
0.000484061
0.000430396
0.000438855
0.000464713
0.000496862
0.000532896
0.000573001
0.000618519
0.000671663
0.000735735
0.000815666
0.000918691
0.00105474
0.00123565
0.00147142
0.0017614
0.00208125
0.00236672
0.00248617
0.0024848
0.00241148
0.00237377
0.00237683
0.00245345
0.00256898
0.00270933
0.00288865
0.00312515
0.00343862
0.00384291
0.00433608
0.00489029
0.00547587
0.00593817
0.00616178
0.00623943
0.00621064
0.00558555
0.0028683
0.000984195
0.000500779
0.000441724
0.000447792
0.000472625
0.000504572
0.000541025
0.000582157
0.00062942
0.000685235
0.000753173
0.000838403
0.000948204
0.00109203
0.00128019
0.00151946
0.0018041
0.00210439
0.00233947
0.00240901
0.00238104
0.00229519
0.00226174
0.00226781
0.0023377
0.00243325
0.00254853
0.00270234
0.00292039
0.00323173
0.00366225
0.00422509
0.00490617
0.00566188
0.0063441
0.00669089
0.00678665
0.0066815
0.00624972
0.00459278
0.00100385
0.000514357
0.000450455
0.000454184
0.000477877
0.000509433
0.000546041
0.000587827
0.000636297
0.000693978
0.000764546
0.000853173
0.000966836
0.00111411
0.0013034
0.00153787
0.00180869
0.00209048
0.00228497
0.00232763
0.00228016
0.00218974
0.00215579
0.00215915
0.00221457
0.00228695
0.0023744
0.00249856
0.00269074
0.00298795
0.00342744
0.00403843
0.00482701
0.00575184
0.00671724
0.00732027
0.00749505
0.00735131
0.00701338
0.00602021
0.00101553
0.000525136
0.000456926
0.000458371
0.000480788
0.000511723
0.000548143
0.000590138
0.000639197
0.000697841
0.000769678
0.000859628
0.000974025
0.00112023
0.00130498
0.00153161
0.00179141
0.00205151
0.00221233
0.00224343
0.00218756
0.00209329
0.00205397
0.00205187
0.00209072
0.00214207
0.00220449
0.00230034
0.00246456
0.00274051
0.00317557
0.00381452
0.00468669
0.00577734
0.00700846
0.00796515
0.00828836
0.00809848
0.00758834
0.0072638
0.00102014
0.000533472
0.000461421
0.000460686
0.000481611
0.000511607
0.000547601
0.0005894
0.000638385
0.000697001
0.000768719
0.000858192
0.000971321
0.00111478
0.00129425
0.00151016
0.00175078
0.00198546
0.00213205
0.00215988
0.00210336
0.00200709
0.00195747
0.00194821
0.00197183
0.00200695
0.00205043
0.00212336
0.00226233
0.00251531
0.00293803
0.00358965
0.0045236
0.00576049
0.00723095
0.00860548
0.00916892
0.00895741
0.0083441
0.00844673
0.00101844
0.000539608
0.000464245
0.000461438
0.000480947
0.000510161
0.000545487
0.000586761
0.000635278
0.000693342
0.00076419
0.000852048
0.000962081
0.00109971
0.00126906
0.00146936
0.00169032
0.00190466
0.00204646
0.00207883
0.00202771
0.00193246
0.00186939
0.00185029
0.00186112
0.00188516
0.00191701
0.00197477
0.00209476
0.00232759
0.00273499
0.00338788
0.00436189
0.00571363
0.0074113
0.00921698
0.0101308
0.0100094
0.0090671
0.00956869
0.00101253
0.000543885
0.000465745
0.000461019
0.000479119
0.000507047
0.000541342
0.000581661
0.000629148
0.000685893
0.000754805
0.000839566
0.000944498
0.00107413
0.00123171
0.00141628
0.00161835
0.00181439
0.0019556
0.00199955
0.00196033
0.00187054
0.00179459
0.00176128
0.00176069
0.00177736
0.00180419
0.00185521
0.00196452
0.0021833
0.00257681
0.00322503
0.00422442
0.00567097
0.00758563
0.00976117
0.0111377
0.0111517
0.00991592
0.0106518
0.00100216
0.000546551
0.000466249
0.000459812
0.000476167
0.000502721
0.000535774
0.00057481
0.000620785
0.000675557
0.000741699
0.00082241
0.000921343
0.00104212
0.0011872
0.0013556
0.00153936
0.00171905
0.00185883
0.00191948
0.00189794
0.00182108
0.00173776
0.00168816
0.00167478
0.00168456
0.00171044
0.00176202
0.00186913
0.00208126
0.00246443
0.00310447
0.00411608
0.00563421
0.00773876
0.010269
0.0121881
0.0124049
0.0108749
0.0117426
0.000989011
0.000547812
0.000465945
0.000457753
0.000472518
0.000497606
0.00052923
0.000566725
0.000610858
0.00066324
0.000726099
0.00080216
0.000894452
0.00100588
0.0011383
0.0012908
0.00145707
0.00162195
0.00175866
0.00183464
0.00183513
0.00178069
0.00169915
0.00163722
0.00160957
0.00161247
0.00163642
0.00169222
0.00180396
0.00201576
0.00239171
0.00302159
0.00403621
0.00560725
0.00787923
0.0107471
0.0132375
0.0137498
0.0119401
0.0128062
0.00097457
0.000548155
0.000465136
0.000455238
0.000468416
0.000491977
0.000522043
0.000557811
0.000599865
0.000649571
0.000708829
0.000779918
0.000865317
0.000967333
0.00108737
0.00122466
0.00137435
0.00152501
0.00165682
0.00174426
0.00176866
0.00173889
0.00167418
0.00160864
0.00156964
0.00156537
0.00158644
0.00164484
0.00176332
0.00197767
0.0023479
0.0029657
0.00397434
0.00558076
0.00799906
0.0111886
0.0142617
0.0151637
0.0131294
0.013899
0.000960997
0.000547939
0.000463851
0.000452423
0.000464069
0.00048608
0.000514513
0.000548439
0.00058827
0.000635142
0.000690648
0.000756672
0.000835217
0.000928091
0.00103635
0.00115936
0.00129346
0.00143024
0.00155523
0.00164926
0.00169496
0.00168826
0.0016512
0.00159399
0.00155145
0.00154145
0.00156018
0.00161839
0.0017402
0.00195615
0.00231957
0.00292167
0.00391566
0.00554035
0.00807582
0.0115894
0.015259
0.0166519
0.0144361
0.0149819
0.00094667
0.000547187
0.000462348
0.0004495
0.000459637
0.000480123
0.000506903
0.000538939
0.000576489
0.000620477
0.000672223
0.000733266
0.000805199
0.000889423
0.000986711
0.00109655
0.00121617
0.00133943
0.00145594
0.00155159
0.0016122
0.00162933
0.00161462
0.00157916
0.00154311
0.00153209
0.00154906
0.00160523
0.00172583
0.00193899
0.00229173
0.00287359
0.003845
0.00547281
0.00810366
0.0119325
0.0161978
0.0181902
0.0158763
0.0160981
0.000931762
0.000545595
0.000460601
0.00044654
0.000455256
0.000474268
0.000499429
0.000529595
0.000564883
0.000606035
0.000654127
0.000710399
0.000776105
0.000852305
0.000939544
0.00103738
0.00114371
0.00125404
0.00136092
0.00145413
0.00152281
0.00155889
0.00156336
0.00155035
0.00152834
0.00152247
0.00153919
0.00159291
0.00170867
0.00191369
0.00225102
0.00280801
0.00374905
0.00536571
0.00808067
0.0121975
0.0170686
0.0197769
0.0174458
0.0172144
0.000916916
0.000543153
0.000458591
0.000443574
0.000451027
0.000468648
0.000492276
0.00052065
0.00055377
0.000592212
0.000636842
0.000688648
0.000748598
0.000817472
0.000895625
0.000982648
0.00107692
0.00117511
0.00127182
0.00135971
0.00143064
0.00147795
0.0014998
0.00150226
0.00149721
0.00149912
0.00151734
0.00156909
0.0016782
0.00187075
0.00218825
0.00271481
0.00361591
0.00520241
0.00796261
0.0123264
0.0178453
0.0213747
0.0191725
0.0183565
0.00090284
0.000540069
0.000456337
0.000440624
0.000447013
0.000463378
0.000485606
0.000512325
0.000543431
0.000579358
0.000620789
0.000668498
0.000723212
0.000785484
0.000855508
0.000932882
0.00101631
0.00110327
0.00118981
0.0012706
0.00133964
0.00139168
0.00142422
0.0014398
0.00144614
0.00145507
0.00147717
0.00152747
0.00162868
0.00180585
0.00209996
0.00259115
0.00344307
0.0049805
0.00775773
0.0123611
0.0185098
0.0229442
0.0210744
0.0194959
0.000890321
0.000536489
0.000453855
0.000437711
0.000443265
0.000458564
0.000479578
0.000504837
0.000534144
0.00056781
0.000606361
0.000650384
0.000700411
0.000756802
0.000819618
0.000888448
0.000962209
0.00103895
0.00111569
0.00118852
0.00125301
0.00130512
0.0013425
0.00136598
0.00138044
0.0013945
0.00141879
0.00146726
0.00155928
0.00171992
0.00198833
0.00244001
0.00323348
0.00470001
0.0074505
0.0122428
0.0190055
0.0244638
0.0231322
0.0206428
0.000880191
0.000532595
0.000451178
0.000434863
0.000439847
0.000454335
0.000474381
0.000498437
0.000526224
0.00055794
0.000593976
0.000634763
0.000680665
0.000731887
0.000788376
0.000849701
0.000914925
0.000982472
0.00105006
0.00111474
0.00117323
0.00122243
0.00126039
0.0012872
0.00130602
0.00132319
0.00134787
0.00139266
0.00147502
0.00161861
0.00185996
0.00226895
0.00299575
0.00436984
0.00704413
0.0119412
0.019244
0.0258952
0.025326
0.0217722
0.000873557
0.000528672
0.000448383
0.000432148
0.000436872
0.000450885
0.000470293
0.000493484
0.000520103
0.000550244
0.000584185
0.000622225
0.00066459
0.000711354
0.000762371
0.000817188
0.000874965
0.000934392
0.000993658
0.0010505
0.00110243
0.0011471
0.00118294
0.00120986
0.00122992
0.00124795
0.00127154
0.00131175
0.00138421
0.00151071
0.00172464
0.00208918
0.0027431
0.00400564
0.00654966
0.0114659
0.0193017
0.0271923
0.0276328
0.0228821
0.000872438
0.000525051
0.00044557
0.000429704
0.000434577
0.000448581
0.000467806
0.000490592
0.000516492
0.00054552
0.000577876
0.000613737
0.000653211
0.000696268
0.000742686
0.000791998
0.000843446
0.000895904
0.000947889
0.000997618
0.00104317
0.00108275
0.00111516
0.00114029
0.00115965
0.00117698
0.00119857
0.00123395
0.00129696
0.00140728
0.0015947
0.00191501
0.00249319
0.00363113
0.00599098
0.0108033
0.019026
0.0282553
0.0300088
0.0239554
0.000875106
0.000521259
0.000442812
0.000427837
0.000433534
0.000448228
0.000467837
0.000490773
0.000516615
0.000545285
0.000576774
0.000611186
0.00064855
0.000688765
0.00073156
0.000776483
0.000822913
0.000869784
0.000915837
0.000959634
0.000999668
0.00103458
0.00106346
0.00108629
0.00110427
0.00112044
0.00114008
0.0011713
0.00122621
0.00132236
0.00148578
0.00176446
0.00226831
0.0032734
0.00541162
0.00999152
0.0184129
0.0290111
0.0324022
0.0249868
0.000885921
0.000518735
0.000440651
0.000427244
0.000434193
0.000449947
0.000470525
0.000494321
0.000520784
0.000549793
0.000581392
0.000615599
0.000652383
0.000691597
0.000732934
0.000775822
0.000819212
0.000862417
0.000904451
0.000944168
0.000980395
0.0010121
0.00103864
0.00106006
0.00107746
0.00109335
0.00111226
0.00114113
0.00119053
0.00127617
0.0014223
0.00167119
0.00211131
0.00298054
0.00486708
0.00911514
0.0175574
0.0294946
0.034709
0.0259745
0.000912102
0.00051875
0.000440274
0.0004286
0.000437931
0.000456237
0.000479274
0.000505386
0.000533952
0.000564791
0.000597899
0.000633264
0.000670805
0.000710336
0.000751534
0.000793927
0.000836953
0.000879685
0.000921168
0.000960386
0.000996339
0.00102818
0.00105544
0.00107826
0.00109774
0.0011162
0.00113779
0.00116888
0.00121887
0.00130187
0.00143899
0.00166621
0.00206328
0.00284252
0.00453258
0.00836956
0.016563
0.0298057
0.0367904
0.0269281
0.000958094
0.00052111
0.000442535
0.000434802
0.000449171
0.000472752
0.000501101
0.000532502
0.000566284
0.00060221
0.000640214
0.000680261
0.000722255
0.000765999
0.000811172
0.000857331
0.000903984
0.000950372
0.000995649
0.00103895
0.0010795
0.00111668
0.00115027
0.00118058
0.00120885
0.00123739
0.00127021
0.00131342
0.00137599
0.00147155
0.00162057
0.00185499
0.00224093
0.00295708
0.00448159
0.00804224
0.0159723
0.0301078
0.0384075
0.0278866
0.00102237
0.000528051
0.000452618
0.000453751
0.000478876
0.000513888
0.000554172
0.000597948
0.000644477
0.000693456
0.000744765
0.000798345
0.00085411
0.000911877
0.000971358
0.00103215
0.00109379
0.00115569
0.00121717
0.00127757
0.00133639
0.00139333
0.00144851
0.00150262
0.00155723
0.00161514
0.00168091
0.00176121
0.00186589
0.00200969
0.00221436
0.00251471
0.00296366
0.00372326
0.00519827
0.00846937
0.0158803
0.0307104
0.0394084
0.0289765
0.00113325
0.000548093
0.000484845
0.000509242
0.000561282
0.000625498
0.000697211
0.000774566
0.000856672
0.000943075
0.00103356
0.00112803
0.00122639
0.00132848
0.00143409
0.00154289
0.00165452
0.00176852
0.00188457
0.00200228
0.00212171
0.00224302
0.00236727
0.00249586
0.00263162
0.0027787
0.00294433
0.00313736
0.00337069
0.00366274
0.00403772
0.00454294
0.00521785
0.00624606
0.00787129
0.0111538
0.018036
0.0325257
0.0401016
0.0296831
0.00126686
0.000605112
0.000592425
0.000695739
0.0008361
0.000998142
0.0011781
0.00137381
0.0015835
0.00180577
0.00203984
0.0022851
0.00254129
0.00280779
0.00308443
0.00337027
0.00366529
0.00396849
0.00428049
0.00460059
0.00493071
0.00527082
0.00562512
0.00599503
0.00638755
0.00680741
0.00727116
0.00778814
0.00837654
0.00905634
0.00984604
0.0108192
0.0119467
0.0135165
0.0154755
0.0189996
0.0248286
0.0370644
0.041163
0.0299948
0.00154052
0.000791891
0.00105598
0.00153048
0.00208099
0.00269528
0.00337685
0.00411917
0.0049116
0.0057431
0.00660713
0.00749694
0.00840968
0.00933868
0.0102823
0.0112329
0.0121913
0.0131493
0.0141122
0.0150713
0.0160375
0.017001
0.0179802
0.018963
0.0199767
0.0210054
0.0220982
0.0232287
0.0244401
0.0257175
0.0270803
0.028625
0.03016
0.0323393
0.0345453
0.0383041
0.041637
0.0467308
0.0443424
0.03001
0.00217797
0.00161562
0.00356293
0.00628794
0.00905408
0.0119113
0.0149282
0.0180701
0.0212709
0.0244605
0.0276051
0.0306682
0.0336459
0.0365068
0.0392592
0.0418688
0.0443594
0.0466938
0.0489145
0.0509776
0.0529481
0.0547671
0.056528
0.0581463
0.0597533
0.0612244
0.0627285
0.0640698
0.0654903
0.0667458
0.0681057
0.0693828
0.0706623
0.0722066
0.0721138
0.0705627
0.0658329
0.056257
0.0471783
0.0281949
0.00153571
0.00270199
0.00432176
0.00587312
0.00735756
0.00872975
0.010015
0.0112464
0.0124473
0.0136258
0.0147856
0.0159252
0.0170466
0.0181471
0.0192297
0.0202889
0.0213306
0.0223434
0.0233398
0.0242999
0.0252475
0.0261491
0.0270463
0.0278853
0.0287337
0.029508
0.0303144
0.0310118
0.031766
0.0323701
0.0330538
0.033525
0.0340669
0.034344
0.0346726
0.0348467
0.0346925
0.0339924
0.0321039
0.0261204
)
;

boundaryField
{
    movingWall
    {
        type            epsilonWallFunction;
        value           nonuniform List<scalar> 
40
(
0.00153571
0.00270199
0.00432176
0.00587312
0.00735756
0.00872975
0.010015
0.0112464
0.0124473
0.0136258
0.0147856
0.0159252
0.0170466
0.0181471
0.0192297
0.0202889
0.0213306
0.0223434
0.0233398
0.0242999
0.0252475
0.0261491
0.0270463
0.0278853
0.0287337
0.029508
0.0303144
0.0310118
0.031766
0.0323701
0.0330538
0.033525
0.0340669
0.034344
0.0346726
0.0348467
0.0346925
0.0339924
0.0321039
0.0261204
)
;
    }
    fixedWalls
    {
        type            epsilonWallFunction;
        value           nonuniform List<scalar> 
120
(
2.05986e-05
9.57059e-05
0.000209096
0.000329762
0.000446326
0.000554043
0.000650597
0.000735112
0.000807517
0.000868059
0.000917183
0.000955612
0.000984195
0.00100385
0.00101553
0.00102014
0.00101844
0.00101253
0.00100216
0.000989011
0.00097457
0.000960997
0.00094667
0.000931762
0.000916916
0.00090284
0.000890321
0.000880191
0.000873557
0.000872438
0.000875106
0.000885921
0.000912102
0.000958094
0.00102237
0.00113325
0.00126686
0.00154052
0.00217797
0.00153571
2.68098e-05
0.000113709
0.000216269
0.000291994
0.000334801
0.000333772
0.000293433
0.000221097
0.000205655
0.0004162
0.00119737
0.0028683
0.00459278
0.00602021
0.0072638
0.00844673
0.00956869
0.0106518
0.0117426
0.0128062
0.013899
0.0149819
0.0160981
0.0172144
0.0183565
0.0194959
0.0206428
0.0217722
0.0228821
0.0239554
0.0249868
0.0259745
0.0269281
0.0278866
0.0289765
0.0296831
0.0299948
0.03001
0.0281949
0.0261204
2.05986e-05
9.00308e-05
0.000169346
0.000234799
0.000286933
0.000328839
0.000362714
0.000390254
0.00041308
0.000432853
0.000451268
0.000470022
0.000490836
0.000515539
0.000546238
0.000585508
0.000636517
0.000703004
0.000788982
0.000897848
0.00103122
0.00118765
0.00136242
0.00155007
0.00175015
0.00197918
0.00220603
0.00237437
0.00245555
0.00247753
0.00236944
0.0021487
0.00184514
0.00148248
0.00111004
0.000772677
0.000491392
0.00027988
0.000122626
2.68098e-05
)
;
    }
    frontAndBack
    {
        type            empty;
    }
}


// ************************************************************************* //
