/*--------------------------------*- C++ -*----------------------------------*\
  =========                 |
  \\      /  F ield         | OpenFOAM: The Open Source CFD Toolbox
   \\    /   O peration     | Website:  https://openfoam.org
    \\  /    A nd           | Version:  12
     \\/     M anipulation  |
\*---------------------------------------------------------------------------*/
FoamFile
{
    format      ascii;
    class       volScalarField;
    location    "1.5";
    object      k;
}
// * * * * * * * * * * * * * * * * * * * * * * * * * * * * * * * * * * * * * //

dimensions      [0 2 -2 0 0 0 0];

internalField   nonuniform List<scalar> 
1600
(
1.59841e-06
6.98749e-06
1.31455e-05
1.82282e-05
2.22782e-05
2.55364e-05
2.81731e-05
3.03207e-05
3.21055e-05
3.36574e-05
3.51091e-05
3.65931e-05
3.8244e-05
4.02053e-05
4.26435e-05
4.57632e-05
4.98172e-05
5.5104e-05
6.19427e-05
7.06009e-05
8.12008e-05
9.36214e-05
0.000107485
0.000122364
0.000138233
0.0001564
0.000174286
0.000187471
0.000193784
0.000195445
0.000186612
0.000169029
0.000144898
0.000116173
8.6777e-05
6.02458e-05
3.82352e-05
2.17824e-05
9.54722e-06
2.08844e-06
7.43061e-06
5.10493e-05
8.85902e-05
0.000115928
0.000136731
0.000153167
0.000166454
0.000177462
0.000186951
0.000195637
0.000204186
0.000213205
0.000223238
0.000234791
0.000248387
0.000264631
0.00028424
0.000308006
0.000336709
0.000371002
0.000411216
0.000457092
0.000507605
0.000561248
0.000615647
0.000666088
0.000710248
0.00074083
0.000753556
0.000754191
0.000719712
0.000659909
0.000577822
0.000479995
0.000377646
0.000282233
0.000199836
0.000127769
6.18327e-05
8.85657e-06
1.6252e-05
0.00010031
0.000162588
0.000206133
0.000239172
0.000265122
0.000285988
0.000303267
0.000318238
0.000332022
0.000345556
0.000359552
0.000374496
0.000390731
0.000408656
0.000428954
0.000452736
0.00048143
0.000516453
0.000558866
0.000609061
0.000666564
0.000730127
0.000797818
0.000866731
0.000932741
0.000990607
0.0010299
0.00104655
0.00104766
0.00100138
0.000923017
0.000815954
0.000686663
0.0005468
0.000413296
0.000299346
0.000202706
0.000109563
1.68435e-05
2.56566e-05
0.000144156
0.000223369
0.00027733
0.000318428
0.000351088
0.000377794
0.000400355
0.000420274
0.000438799
0.000456864
0.000475055
0.000493663
0.000512905
0.000533263
0.000555799
0.000582242
0.000614797
0.000655632
0.000706252
0.000767123
0.000837498
0.000915305
0.000997007
0.00107778
0.00115283
0.00121656
0.0012569
0.0012733
0.00127388
0.00122032
0.00112783
0.00100172
0.000851386
0.000680761
0.000508994
0.000363718
0.000248895
0.000140478
2.26926e-05
3.47545e-05
0.000182775
0.000275321
0.000337313
0.000384644
0.00042272
0.000454462
0.000481887
0.000506578
0.000529753
0.000552218
0.00057436
0.00059631
0.000618289
0.000641051
0.000666214
0.000696272
0.000734201
0.00078276
0.000843696
0.000916915
0.000999821
0.00108714
0.00117178
0.00124657
0.00130587
0.00134701
0.00136731
0.00137502
0.00137412
0.00134105
0.00127634
0.00116385
0.00100644
0.000819275
0.000606887
0.00041383
0.000272726
0.000156007
2.59293e-05
4.31706e-05
0.000216497
0.000320109
0.000388896
0.000441482
0.0004842
0.000520406
0.000552301
0.000581496
0.000609131
0.00063586
0.000661922
0.000687398
0.000712648
0.000738788
0.000767984
0.000803363
0.000848451
0.000906104
0.000977042
0.00105833
0.00114275
0.00122024
0.00128176
0.00132361
0.00134796
0.00136108
0.00136843
0.00137149
0.00137046
0.00135455
0.00132412
0.00126102
0.00114429
0.000958308
0.00072464
0.000468513
0.000274624
0.000153185
2.57704e-05
5.07199e-05
0.00024566
0.000358661
0.000433429
0.00049068
0.000537548
0.000577795
0.000613803
0.000647216
0.000679104
0.000710017
0.000740126
0.000769556
0.000798866
0.000829497
0.000863985
0.000905732
0.000958112
0.00102277
0.00109736
0.00117392
0.00124039
0.00128669
0.00131035
0.00132167
0.00133024
0.00134093
0.00135342
0.00136097
0.00136358
0.00135794
0.00134153
0.00130349
0.00123631
0.00110444
0.000870408
0.000559769
0.000264653
0.000130276
2.25649e-05
5.73305e-05
0.000270623
0.000391599
0.000471683
0.000533176
0.000583851
0.000627816
0.000667633
0.000704995
0.000740948
0.000776
0.000810329
0.000844153
0.000878195
0.000914057
0.000954301
0.00100197
0.00105924
0.00112512
0.00119308
0.00125149
0.00128563
0.00129919
0.00130487
0.00131473
0.0013354
0.00136459
0.00139763
0.00142744
0.0014451
0.00145134
0.0014438
0.00140791
0.00134208
0.00124224
0.00106549
0.000739888
0.00030774
0.000100005
1.69827e-05
6.29942e-05
0.000291735
0.000419413
0.000504194
0.000569553
0.000623751
0.000671169
0.000714526
0.000755589
0.000795421
0.000834547
0.000873197
0.000911676
0.000950767
0.000991981
0.00103744
0.00108911
0.00114708
0.00120722
0.00126016
0.00128808
0.00129566
0.00129618
0.00130334
0.00132867
0.00137228
0.00142531
0.00147826
0.00152766
0.00156803
0.00158835
0.00159439
0.00157684
0.00151735
0.00141037
0.00125402
0.000999543
0.000522838
0.000125848
1.61545e-05
6.77286e-05
0.000309327
0.000442547
0.000531402
0.000600249
0.000657695
0.000708314
0.000754957
0.000799469
0.000842966
0.000886026
0.000928943
0.000972063
0.00101609
0.00106216
0.00111152
0.00116454
0.00121891
0.00126801
0.00129384
0.00129925
0.00129368
0.00129254
0.00131082
0.00135712
0.00141754
0.00148302
0.00154961
0.00161376
0.00167165
0.00171519
0.00173539
0.00173932
0.0017067
0.00161437
0.00144817
0.00120247
0.000837791
0.000251499
3.3414e-05
7.15675e-05
0.000323726
0.000461412
0.000553722
0.000625656
0.000686052
0.000739607
0.000789267
0.000836953
0.000883847
0.000930593
0.000977537
0.001025
0.00107345
0.00112345
0.00117508
0.00122686
0.00127436
0.00130246
0.00130873
0.00129853
0.00128922
0.00129004
0.00132295
0.00138154
0.00144903
0.00151929
0.00159068
0.0016642
0.00174022
0.00181391
0.00186629
0.00188706
0.001887
0.00182796
0.00168304
0.0014195
0.00101975
0.000439795
9.5985e-05
7.45667e-05
0.000335243
0.000476409
0.000571562
0.000646158
0.000709175
0.000765371
0.000817751
0.000868296
0.000918252
0.000968322
0.00101888
0.00107015
0.00112229
0.00117512
0.00122749
0.00127633
0.00131118
0.00132194
0.00131519
0.00129254
0.00128086
0.00128593
0.00132758
0.00139117
0.00145946
0.00152904
0.00160035
0.00167754
0.00176319
0.00185859
0.00195387
0.00201806
0.00204094
0.00202403
0.00191847
0.00168547
0.00129301
0.000717209
0.000227238
7.67927e-05
0.000344177
0.000487929
0.000585337
0.000662154
0.000727432
0.00078594
0.000840706
0.00089375
0.000946366
0.000999304
0.00105293
0.00110734
0.00116231
0.00121693
0.00126883
0.00131313
0.00133451
0.00133491
0.0013137
0.00128193
0.00126958
0.00127737
0.00132266
0.00138546
0.00145122
0.00151734
0.00158733
0.00166705
0.00176091
0.00186952
0.00199165
0.00211141
0.00217682
0.00219224
0.00212901
0.00191666
0.0015121
0.000876041
0.000360474
7.83175e-05
0.000350816
0.000496359
0.000595468
0.000674063
0.000741218
0.000801678
0.000858463
0.000913608
0.000968437
0.00102372
0.0010798
0.00113662
0.00119361
0.00124922
0.00130025
0.00133834
0.00135126
0.00134236
0.00131016
0.00127036
0.00125572
0.0012635
0.00130835
0.00136759
0.00142772
0.00148784
0.00155399
0.0016336
0.00173358
0.00185727
0.00200158
0.00215977
0.0022912
0.00234588
0.0023298
0.00215233
0.00174931
0.00109342
0.000471296
7.92167e-05
0.000355437
0.000502078
0.000602379
0.00068232
0.000750959
0.000812992
0.000871405
0.000928227
0.000984793
0.00104188
0.00109978
0.00115831
0.00121659
0.00127256
0.00132228
0.0013554
0.00136361
0.00134712
0.00130613
0.00125879
0.00123946
0.00124338
0.00128246
0.00133613
0.00139066
0.00144547
0.00150723
0.0015855
0.00168967
0.00182563
0.0019928
0.00218157
0.00237161
0.0024896
0.00251426
0.00238119
0.00197661
0.00126148
0.000567786
7.95583e-05
0.000358304
0.000505451
0.000606487
0.000687366
0.0007571
0.000820317
0.000879958
0.000938027
0.000995849
0.00105419
0.00111329
0.00117285
0.00123174
0.00128761
0.00133611
0.00136674
0.00137284
0.00135191
0.00130576
0.00125033
0.00122183
0.00121954
0.00124963
0.0012963
0.00134538
0.00139548
0.00145355
0.00153079
0.00163864
0.00178496
0.00197116
0.00219015
0.00242353
0.00261539
0.00268671
0.00260276
0.00220185
0.00144582
0.000659983
7.9412e-05
0.000359659
0.000506764
0.000608129
0.000689579
0.00076004
0.000824063
0.000884534
0.000943418
0.00100202
0.00106107
0.00112079
0.00118078
0.00123981
0.0012954
0.00134313
0.00137344
0.0013796
0.00135769
0.00130869
0.00124951
0.00120686
0.00119519
0.0012136
0.00125177
0.00129557
0.00134222
0.00139837
0.00147618
0.00158866
0.00174503
0.00194797
0.00219339
0.00246313
0.00272065
0.00284997
0.00281694
0.00242673
0.00161788
0.000747121
7.89281e-05
0.000359519
0.000506313
0.00060766
0.000689276
0.000760083
0.000824562
0.000885491
0.000944781
0.00100371
0.00106298
0.00112278
0.00118266
0.00124138
0.00129647
0.00134377
0.00137549
0.00138408
0.00136476
0.00131685
0.00125433
0.00120188
0.00117517
0.00117954
0.00120717
0.00124523
0.00128963
0.00134603
0.00142676
0.00154564
0.00171228
0.00193103
0.00219737
0.00249921
0.00280481
0.00300424
0.00302017
0.00264668
0.00178553
0.000831657
7.81012e-05
0.000358738
0.000504884
0.000606002
0.000687606
0.000758471
0.000823006
0.000883983
0.000943283
0.00100215
0.0010613
0.00112088
0.00118046
0.00123882
0.00129362
0.0013409
0.00137408
0.00138611
0.00137223
0.00132979
0.00126746
0.00120709
0.00116774
0.00115525
0.001169
0.00119964
0.00124223
0.00130065
0.00138651
0.00151382
0.00169262
0.00192461
0.00220594
0.00253253
0.00287696
0.0031467
0.00321076
0.00286388
0.00195692
0.000916565
7.70558e-05
0.000357
0.000502187
0.000602825
0.000684171
0.000754896
0.000819343
0.000880209
0.000939324
0.000997902
0.00105663
0.00111566
0.00117458
0.00123225
0.00128653
0.00133393
0.00136923
0.00138552
0.00137838
0.00134517
0.00128861
0.00122399
0.00117396
0.00114822
0.00114751
0.00116642
0.00120594
0.0012668
0.0013598
0.00149753
0.00168579
0.00192531
0.00221928
0.00256466
0.0029407
0.00327081
0.00339025
0.00307517
0.0021241
0.000999588
7.59211e-05
0.000354378
0.000498606
0.000598615
0.000679478
0.000749803
0.000813864
0.000874303
0.000932908
0.000990866
0.00104885
0.00110702
0.001165
0.00122178
0.00127546
0.00132309
0.00136039
0.00138197
0.00138168
0.00135942
0.00131329
0.00125323
0.00119517
0.00115753
0.00114666
0.00115615
0.0011876
0.00124996
0.00134935
0.00149378
0.00168808
0.00193447
0.00223548
0.00259345
0.0029949
0.00337535
0.00355367
0.00327889
0.00229495
0.00108478
7.48486e-05
0.000351037
0.000494388
0.000593679
0.000673932
0.000743692
0.00080718
0.00086699
0.000924876
0.000982003
0.00103904
0.00109615
0.00115303
0.00120877
0.00126175
0.00130948
0.00134846
0.00137424
0.00138152
0.00136952
0.00133675
0.00128647
0.00123131
0.00118516
0.00116174
0.00116569
0.00119109
0.00124989
0.00135192
0.0015008
0.0016991
0.00194737
0.0022489
0.00261181
0.00303512
0.00345962
0.00370188
0.00347597
0.00246536
0.00116932
7.37143e-05
0.000347199
0.000489725
0.000588257
0.000667811
0.000736887
0.000799662
0.000858692
0.000915704
0.000971847
0.00102778
0.00108371
0.00113936
0.00119395
0.0012461
0.00129373
0.00133401
0.00136337
0.0013779
0.00137417
0.00135469
0.00131712
0.00127068
0.00122657
0.00119689
0.00119355
0.00121282
0.00126664
0.00136762
0.00151618
0.0017132
0.00195717
0.00225441
0.00261798
0.00305367
0.00352225
0.00383112
0.00366438
0.00264081
0.00125642
7.2534e-05
0.000343106
0.000484803
0.000582561
0.000661367
0.000729684
0.000791657
0.000849813
0.000905852
0.000960913
0.00101566
0.00107031
0.00112465
0.001178
0.00122918
0.00127648
0.00131758
0.00134963
0.00136946
0.00137377
0.00136464
0.00134069
0.00130538
0.0012683
0.00124004
0.00123319
0.00124856
0.00129571
0.00139035
0.00153338
0.00172292
0.00195994
0.00225087
0.00261165
0.00305691
0.00355682
0.00394075
0.00384395
0.0028191
0.00134357
7.13586e-05
0.00033897
0.000479802
0.000576785
0.000654829
0.00072236
0.000783493
0.000840731
0.000895755
0.000949692
0.00100321
0.00105654
0.00110952
0.00116156
0.00121167
0.00125839
0.00129983
0.00133372
0.00135758
0.00136919
0.00136695
0.00135467
0.00133072
0.00130262
0.00127921
0.0012722
0.00128504
0.0013264
0.0014121
0.00154511
0.00172456
0.0019501
0.00222917
0.00258268
0.0030356
0.00356865
0.00402968
0.00401308
0.00300487
0.00143272
7.02437e-05
0.000334987
0.000474904
0.00057112
0.000648419
0.000715178
0.000775484
0.000831815
0.000885834
0.000938656
0.000990946
0.00104296
0.00109457
0.00114526
0.00119418
0.00124009
0.00128144
0.00131638
0.00134293
0.00135929
0.00136414
0.00135898
0.00134528
0.00132574
0.00130826
0.00130293
0.00131401
0.00135015
0.00142612
0.0015474
0.00171319
0.00192363
0.0021876
0.00253
0.00298668
0.00355753
0.0040923
0.00416984
0.00319682
0.00152166
6.92504e-05
0.000331357
0.000470293
0.000565761
0.000642363
0.000708408
0.000767949
0.000823437
0.000876511
0.000928274
0.000979387
0.00103012
0.00108036
0.00112968
0.00117733
0.00122224
0.00126309
0.00129838
0.00132651
0.00134604
0.00135609
0.00135629
0.0013497
0.00133724
0.00132508
0.00132171
0.00133135
0.0013626
0.00142894
0.00153704
0.00168697
0.00187998
0.00212605
0.00245349
0.00290849
0.00351016
0.00412164
0.00431226
0.00339723
0.0016112
6.84437e-05
0.0003283
0.000466174
0.000560926
0.000636911
0.000702348
0.000761236
0.000815991
0.000868227
0.000919023
0.000969036
0.00101854
0.00106745
0.00111539
0.00116169
0.00120543
0.00124547
0.00128053
0.00130932
0.00133063
0.0013437
0.0013484
0.00134615
0.00133876
0.00133038
0.00132829
0.00133636
0.0013627
0.00141939
0.00151357
0.00164647
0.00182041
0.00204622
0.00235501
0.00280328
0.00343284
0.00412939
0.00443733
0.00360377
0.00169934
6.79073e-05
0.000326056
0.000462788
0.000556879
0.000632368
0.000697348
0.000755743
0.00080992
0.000861451
0.000911395
0.000960395
0.00100873
0.00105635
0.0011029
0.0011478
0.00119021
0.00122917
0.00126356
0.00129228
0.00131433
0.00132904
0.00133626
0.00133681
0.00133343
0.00132724
0.00132528
0.00133154
0.00135276
0.00139913
0.00147889
0.00159409
0.00174782
0.0019513
0.00223737
0.00267153
0.0033193
0.00409716
0.00453719
0.00381514
0.00178597
6.78044e-05
0.00032515
0.000460475
0.000553973
0.000629137
0.000693862
0.00075196
0.000805728
0.000856692
0.000905884
0.000953942
0.00100115
0.00104748
0.00109263
0.00113606
0.00117705
0.00121471
0.00124808
0.00127622
0.00129824
0.00131356
0.001322
0.00132405
0.00132204
0.00131757
0.00131513
0.00131899
0.00133442
0.00137063
0.00143618
0.00153359
0.00166651
0.00184601
0.00210537
0.00251745
0.00317132
0.00401843
0.00460564
0.00402771
0.0018697
6.80046e-05
0.000325511
0.000459702
0.000552762
0.000627821
0.000692517
0.000750508
0.000804001
0.000854474
0.000902941
0.000950071
0.000996141
0.00104115
0.00108485
0.00112676
0.00116622
0.00120246
0.00123461
0.00126183
0.00128335
0.00129863
0.00130748
0.00131019
0.00130858
0.00130435
0.00130063
0.00130205
0.00131206
0.00133851
0.00139019
0.00147013
0.00158219
0.00173663
0.00196561
0.00234694
0.00299307
0.00389496
0.00463783
0.00423577
0.00195019
6.88251e-05
0.00032692
0.000460289
0.000553311
0.000628542
0.00069341
0.000751463
0.000804846
0.000855003
0.000902915
0.00094909
0.00099393
0.00103754
0.00107972
0.00112004
0.00115794
0.00119271
0.00122359
0.0012498
0.00127066
0.00128567
0.00129461
0.00129764
0.00129617
0.00129188
0.00128686
0.00128564
0.001291
0.00130879
0.001347
0.00141044
0.00150211
0.00163132
0.00182758
0.00216997
0.00279251
0.00373485
0.00464741
0.00443039
0.00202724
7.08368e-05
0.000329943
0.000462776
0.000556065
0.000631766
0.000697
0.000755169
0.000808362
0.000858022
0.000905165
0.000950511
0.00099437
0.00103673
0.00107743
0.00111623
0.00115268
0.00118616
0.00121596
0.00124141
0.00126186
0.00127686
0.00128619
0.00128992
0.00128897
0.0012852
0.0012797
0.00127639
0.00127851
0.00128936
0.00131604
0.00136501
0.00143865
0.00154399
0.00170633
0.0020019
0.00258622
0.0035531
0.00463528
0.00459524
0.00210165
7.44078e-05
0.000335867
0.000468754
0.000562733
0.000639132
0.00070475
0.000762894
0.000815673
0.000864583
0.000910716
0.00095492
0.000997553
0.00103877
0.0010785
0.00111642
0.00115206
0.00118489
0.00121437
0.0012399
0.00126089
0.00127686
0.00128745
0.00129282
0.00129351
0.00129145
0.00128733
0.00128439
0.00128571
0.0012936
0.00131371
0.00135213
0.00141229
0.00150266
0.00164674
0.00191541
0.00245068
0.00340046
0.0046074
0.00468059
0.00217643
7.94084e-05
0.000345102
0.000479646
0.000574668
0.00065156
0.000717235
0.000775139
0.000827546
0.000876032
0.000921646
0.000965118
0.00100699
0.00104755
0.00108681
0.00112456
0.00116046
0.00119403
0.00122472
0.00125199
0.00127533
0.00129436
0.00130891
0.00131902
0.00132509
0.00132838
0.00133004
0.00133239
0.00133794
0.00134965
0.00137204
0.00141051
0.0014694
0.00155466
0.00168778
0.00192548
0.00241474
0.00334036
0.00459573
0.00470884
0.0022615
8.80389e-05
0.000360635
0.000497425
0.000593963
0.000672224
0.000739164
0.000798362
0.000852064
0.000901859
0.000948952
0.000994138
0.00103802
0.00108093
0.001123
0.00116415
0.00120414
0.00124265
0.00127925
0.00131352
0.00134508
0.00137368
0.00139923
0.00142184
0.00144194
0.0014604
0.00147864
0.00149874
0.00152317
0.00155496
0.0015981
0.0016575
0.00173958
0.00184978
0.00200499
0.00223724
0.00266685
0.00345322
0.00463917
0.00469033
0.00231665
9.84564e-05
0.000385789
0.000531276
0.000634411
0.000719573
0.000794402
0.000862656
0.000926529
0.00098754
0.00104683
0.0011052
0.00116325
0.00122136
0.0012797
0.00133832
0.00139709
0.00145583
0.00151426
0.00157219
0.00162938
0.00168585
0.00174158
0.00179699
0.00185252
0.00190908
0.00196815
0.00203282
0.00210516
0.00218773
0.00228354
0.00239572
0.00253152
0.00269047
0.00289156
0.00312311
0.00348817
0.00404071
0.00486222
0.00467033
0.00234097
0.000119809
0.000442757
0.000624318
0.000766828
0.000895163
0.00101653
0.00113545
0.00125352
0.00137132
0.00148911
0.00160726
0.00172589
0.00184522
0.001965
0.00208522
0.00220535
0.00232541
0.00244478
0.00256375
0.00268171
0.00279939
0.0029162
0.0030335
0.00315078
0.00326986
0.00339059
0.00352098
0.00365751
0.00380211
0.00395319
0.00411246
0.00428428
0.0044567
0.00466724
0.00486178
0.00512348
0.00531388
0.00533491
0.00467242
0.00234214
0.000169618
0.000619725
0.0010088
0.00138615
0.00172399
0.00203899
0.00234625
0.00264695
0.00293861
0.00321854
0.00348661
0.00374228
0.00398674
0.00421914
0.00444083
0.00465048
0.00484999
0.00503775
0.00521654
0.0053843
0.00554491
0.00569547
0.00584132
0.00597814
0.00611315
0.00624052
0.00636617
0.00648036
0.00659846
0.00670595
0.00682142
0.00693026
0.00704324
0.00716956
0.00716326
0.00702559
0.00660689
0.005684
0.00445612
0.00220031
0.000119594
0.000210494
0.000336712
0.000457627
0.000573319
0.000680257
0.00078042
0.000876387
0.000969976
0.00106182
0.00115221
0.00124103
0.00132843
0.00141419
0.00149858
0.00158114
0.00166235
0.0017413
0.00181899
0.00189385
0.00196776
0.00203809
0.00210809
0.00217356
0.00223979
0.00230025
0.00236328
0.00241781
0.00247681
0.00252411
0.00257763
0.00261464
0.00265708
0.002679
0.00270473
0.00271865
0.0027067
0.00265219
0.00250491
0.00203816
)
;

boundaryField
{
    movingWall
    {
        type            kqRWallFunction;
        value           nonuniform List<scalar> 
40
(
0.000119594
0.000210494
0.000336712
0.000457627
0.000573319
0.000680257
0.00078042
0.000876387
0.000969976
0.00106182
0.00115221
0.00124103
0.00132843
0.00141419
0.00149858
0.00158114
0.00166235
0.0017413
0.00181899
0.00189385
0.00196776
0.00203809
0.00210809
0.00217356
0.00223979
0.00230025
0.00236328
0.00241781
0.00247681
0.00252411
0.00257763
0.00261464
0.00265708
0.002679
0.00270473
0.00271865
0.0027067
0.00265219
0.00250491
0.00203816
)
;
    }
    fixedWalls
    {
        type            kqRWallFunction;
        value           nonuniform List<scalar> 
120
(
1.59841e-06
7.43061e-06
1.6252e-05
2.56566e-05
3.47545e-05
4.31706e-05
5.07199e-05
5.73305e-05
6.29942e-05
6.77286e-05
7.15675e-05
7.45667e-05
7.67927e-05
7.83175e-05
7.92167e-05
7.95583e-05
7.9412e-05
7.89281e-05
7.81012e-05
7.70558e-05
7.59211e-05
7.48486e-05
7.37143e-05
7.2534e-05
7.13586e-05
7.02437e-05
6.92504e-05
6.84437e-05
6.79073e-05
6.78044e-05
6.80046e-05
6.88251e-05
7.08368e-05
7.44078e-05
7.94084e-05
8.80389e-05
9.84564e-05
0.000119809
0.000169618
0.000119594
2.08844e-06
8.85657e-06
1.68435e-05
2.26926e-05
2.59293e-05
2.57704e-05
2.25649e-05
1.69827e-05
1.61545e-05
3.3414e-05
9.5985e-05
0.000227238
0.000360474
0.000471296
0.000567786
0.000659983
0.000747121
0.000831657
0.000916565
0.000999588
0.00108478
0.00116932
0.00125642
0.00134357
0.00143272
0.00152166
0.0016112
0.00169934
0.00178597
0.0018697
0.00195019
0.00202724
0.00210165
0.00217643
0.0022615
0.00231665
0.00234097
0.00234214
0.00220031
0.00203816
1.59841e-06
6.98749e-06
1.31455e-05
1.82282e-05
2.22782e-05
2.55364e-05
2.81731e-05
3.03207e-05
3.21055e-05
3.36574e-05
3.51091e-05
3.65931e-05
3.8244e-05
4.02053e-05
4.26435e-05
4.57632e-05
4.98172e-05
5.5104e-05
6.19427e-05
7.06009e-05
8.12008e-05
9.36214e-05
0.000107485
0.000122364
0.000138233
0.0001564
0.000174286
0.000187471
0.000193784
0.000195445
0.000186612
0.000169029
0.000144898
0.000116173
8.6777e-05
6.02458e-05
3.82352e-05
2.17824e-05
9.54722e-06
2.08844e-06
)
;
    }
    frontAndBack
    {
        type            empty;
    }
}


// ************************************************************************* //
