/*--------------------------------*- C++ -*----------------------------------*\
  =========                 |
  \\      /  F ield         | OpenFOAM: The Open Source CFD Toolbox
   \\    /   O peration     | Website:  https://openfoam.org
    \\  /    A nd           | Version:  12
     \\/     M anipulation  |
\*---------------------------------------------------------------------------*/
FoamFile
{
    format      ascii;
    class       volScalarField;
    location    "1.5";
    object      nut;
}
// * * * * * * * * * * * * * * * * * * * * * * * * * * * * * * * * * * * * * //

dimensions      [0 2 -1 0 0 0 0];

internalField   nonuniform List<scalar> 
1600
(
1.1163e-08
4.88084e-08
9.18383e-08
1.2736e-07
1.55677e-07
1.78475e-07
1.96946e-07
2.12018e-07
2.24578e-07
2.3554e-07
2.45837e-07
2.56403e-07
2.68184e-07
2.82195e-07
2.99617e-07
3.21916e-07
3.50906e-07
3.88733e-07
4.37679e-07
4.99643e-07
5.75459e-07
6.64209e-07
7.63176e-07
8.6936e-07
9.82634e-07
1.11232e-06
1.23924e-06
1.33218e-06
1.37636e-06
1.38763e-06
1.32274e-06
1.19671e-06
1.02409e-06
8.1934e-07
6.10538e-07
4.22764e-07
2.67757e-07
1.52574e-07
6.6898e-08
1.46417e-08
5.19222e-08
2.50232e-06
5.15802e-06
6.71146e-06
7.73483e-06
8.48917e-06
9.0677e-06
9.51247e-06
9.85194e-06
1.01113e-05
1.03149e-05
1.04872e-05
1.06547e-05
1.08482e-05
1.11056e-05
1.14728e-05
1.20007e-05
1.27381e-05
1.37276e-05
1.49959e-05
1.65451e-05
1.83477e-05
2.03259e-05
2.23389e-05
2.41873e-05
2.55749e-05
2.65908e-05
2.72191e-05
2.74514e-05
2.73972e-05
2.61884e-05
2.46218e-05
2.25495e-05
1.99903e-05
1.70735e-05
1.39453e-05
1.06747e-05
6.99976e-06
2.89893e-06
6.2084e-08
1.13687e-07
6.29005e-06
1.38463e-05
1.82505e-05
2.1013e-05
2.2933e-05
2.43406e-05
2.53905e-05
2.61758e-05
2.67679e-05
2.7228e-05
2.76103e-05
2.79629e-05
2.83297e-05
2.87533e-05
2.92752e-05
2.99788e-05
3.0916e-05
3.20848e-05
3.34531e-05
3.49608e-05
3.6458e-05
3.77773e-05
3.87869e-05
3.94329e-05
3.97611e-05
3.97522e-05
3.90747e-05
3.82318e-05
3.76116e-05
3.49803e-05
3.25629e-05
3.01542e-05
2.76708e-05
2.50768e-05
2.23151e-05
1.90049e-05
1.41601e-05
6.53105e-06
1.18063e-07
1.79655e-07
9.3674e-06
2.09356e-05
2.79246e-05
3.23509e-05
3.54108e-05
3.76532e-05
3.93506e-05
4.06635e-05
4.17055e-05
4.25639e-05
4.33044e-05
4.39702e-05
4.4583e-05
4.51472e-05
4.56577e-05
4.60421e-05
4.62779e-05
4.63937e-05
4.636e-05
4.61208e-05
4.57024e-05
4.52145e-05
4.47032e-05
4.41562e-05
4.34902e-05
4.25834e-05
4.10974e-05
3.94743e-05
3.83752e-05
3.50728e-05
3.16315e-05
2.85598e-05
2.61157e-05
2.36902e-05
2.14935e-05
1.9578e-05
1.59733e-05
7.95755e-06
1.58722e-07
2.43563e-07
1.19261e-05
2.67979e-05
3.60501e-05
4.20028e-05
4.6142e-05
4.91977e-05
5.1548e-05
5.34123e-05
5.49312e-05
5.61933e-05
5.72382e-05
5.80534e-05
5.85755e-05
5.87036e-05
5.8333e-05
5.74096e-05
5.59674e-05
5.41407e-05
5.21865e-05
5.03667e-05
4.88373e-05
4.75997e-05
4.65955e-05
4.57177e-05
4.4847e-05
4.38638e-05
4.23444e-05
4.06125e-05
3.90136e-05
3.6471e-05
3.28758e-05
2.84004e-05
2.3932e-05
2.10638e-05
1.82276e-05
1.65564e-05
1.43691e-05
7.90656e-06
1.80733e-07
3.02743e-07
1.40892e-05
3.16658e-05
4.29485e-05
5.03136e-05
5.54756e-05
5.93145e-05
6.22987e-05
6.46935e-05
6.66496e-05
6.82328e-05
6.94272e-05
7.01343e-05
7.01856e-05
6.93883e-05
6.76141e-05
6.49124e-05
6.15713e-05
5.80588e-05
5.48482e-05
5.22318e-05
5.02653e-05
4.88321e-05
4.77542e-05
4.68558e-05
4.58763e-05
4.47725e-05
4.35035e-05
4.20435e-05
4.0276e-05
3.7673e-05
3.47549e-05
3.10524e-05
2.59579e-05
1.99952e-05
1.58287e-05
1.27331e-05
1.06229e-05
6.5162e-06
1.79075e-07
3.55867e-07
1.58985e-05
3.57307e-05
4.88353e-05
5.75134e-05
6.36478e-05
6.82389e-05
7.18276e-05
7.47113e-05
7.70359e-05
7.88272e-05
7.99976e-05
8.03549e-05
7.9641e-05
7.76269e-05
7.42634e-05
6.98238e-05
6.49071e-05
6.02315e-05
5.63362e-05
5.34167e-05
5.13917e-05
5.01169e-05
4.93197e-05
4.8679e-05
4.84309e-05
4.82579e-05
4.77246e-05
4.63897e-05
4.44397e-05
4.18392e-05
3.85941e-05
3.42929e-05
2.97102e-05
2.34567e-05
1.59513e-05
1.04077e-05
6.447e-06
4.14362e-06
1.5617e-07
4.02402e-07
1.73923e-05
3.91218e-05
5.38539e-05
6.37516e-05
7.08104e-05
7.61216e-05
8.0281e-05
8.36046e-05
8.62221e-05
8.81103e-05
8.91075e-05
8.89401e-05
8.72989e-05
8.39866e-05
7.91134e-05
7.32177e-05
6.71585e-05
6.17759e-05
5.75618e-05
5.45913e-05
5.26228e-05
5.17475e-05
5.14833e-05
5.21376e-05
5.30846e-05
5.36758e-05
5.39002e-05
5.33818e-05
5.16998e-05
4.91533e-05
4.59468e-05
4.1249e-05
3.53846e-05
2.90515e-05
2.11059e-05
1.15198e-05
4.73391e-06
1.9602e-06
1.17402e-07
4.42274e-07
1.86086e-05
4.19279e-05
5.81067e-05
6.91326e-05
7.70666e-05
8.30641e-05
8.77587e-05
9.14738e-05
9.43155e-05
9.6211e-05
9.69334e-05
9.61543e-05
9.35581e-05
8.90343e-05
8.28811e-05
7.58656e-05
6.89995e-05
6.31266e-05
5.86152e-05
5.55517e-05
5.43168e-05
5.40672e-05
5.50401e-05
5.69599e-05
5.89923e-05
6.07944e-05
6.1882e-05
6.21087e-05
6.12281e-05
5.87928e-05
5.56098e-05
5.13052e-05
4.50122e-05
3.68852e-05
2.8328e-05
1.79144e-05
6.56633e-06
1.61673e-06
1.14207e-07
4.75595e-07
1.95796e-05
4.4217e-05
6.16726e-05
7.37356e-05
8.24931e-05
8.9141e-05
9.43359e-05
9.83996e-05
0.000101413
0.000103258
0.000103662
0.000102271
9.88014e-05
9.32543e-05
8.60961e-05
7.82461e-05
7.07767e-05
6.44789e-05
5.93142e-05
5.71411e-05
5.62817e-05
5.71438e-05
5.90655e-05
6.23175e-05
6.51474e-05
6.75507e-05
6.92324e-05
6.99336e-05
6.94568e-05
6.74068e-05
6.34192e-05
5.93326e-05
5.39842e-05
4.63743e-05
3.61879e-05
2.46061e-05
1.2562e-05
2.73067e-06
2.41433e-07
5.02595e-07
2.03337e-05
4.60452e-05
6.46167e-05
7.76258e-05
8.71523e-05
9.44129e-05
0.000100075
0.000104454
0.000107605
0.00010938
0.000109476
0.000107544
0.000103355
9.70162e-05
8.91125e-05
8.06344e-05
7.26527e-05
6.52274e-05
6.0829e-05
5.87284e-05
5.8878e-05
6.00528e-05
6.32609e-05
6.71596e-05
7.04324e-05
7.31826e-05
7.50904e-05
7.61275e-05
7.62811e-05
7.5318e-05
7.22244e-05
6.67559e-05
6.16061e-05
5.48345e-05
4.54617e-05
3.21363e-05
1.71007e-05
4.2428e-06
6.925e-07
5.23661e-07
2.08959e-05
4.74607e-05
6.69959e-05
8.08603e-05
9.10991e-05
9.89338e-05
0.000105034
0.000109705
0.000112983
0.000114699
0.000114544
0.000112192
0.000107474
0.000100579
9.21593e-05
8.32363e-05
7.43432e-05
6.64541e-05
6.26167e-05
6.05117e-05
6.12299e-05
6.26955e-05
6.67369e-05
7.09948e-05
7.46221e-05
7.76638e-05
7.97958e-05
8.10433e-05
8.13682e-05
8.09003e-05
7.92388e-05
7.49505e-05
6.84623e-05
6.20905e-05
5.37586e-05
4.09771e-05
2.42277e-05
8.28835e-06
1.62024e-06
5.39264e-07
2.12892e-05
4.8507e-05
6.88618e-05
8.34919e-05
9.43852e-05
0.000102755
0.000109268
0.000114218
0.000117631
0.000119328
0.000119011
0.000116386
0.00011134
0.000104112
9.53579e-05
8.60191e-05
7.61657e-05
6.85534e-05
6.4476e-05
6.21164e-05
6.32036e-05
6.49279e-05
6.94281e-05
7.38996e-05
7.7897e-05
8.13055e-05
8.39141e-05
8.56443e-05
8.63544e-05
8.58927e-05
8.44954e-05
8.17797e-05
7.53229e-05
6.81786e-05
6.09698e-05
4.87167e-05
3.07987e-05
1.10517e-05
2.54632e-06
5.4991e-07
2.15346e-05
4.92247e-05
7.02631e-05
8.55712e-05
9.70615e-05
0.00010593
0.000112833
0.00011806
0.00012163
0.000123368
0.000122997
0.00012026
0.000115091
0.000107757
9.89408e-05
8.91273e-05
7.86091e-05
7.09744e-05
6.63712e-05
6.36983e-05
6.48084e-05
6.66482e-05
7.13524e-05
7.60094e-05
8.0218e-05
8.39077e-05
8.69863e-05
8.92614e-05
9.05222e-05
9.05777e-05
8.92842e-05
8.69722e-05
8.21417e-05
7.37332e-05
6.67346e-05
5.56269e-05
3.74637e-05
1.53422e-05
3.32062e-06
5.56137e-07
2.16519e-05
4.96524e-05
7.12468e-05
8.71496e-05
9.91837e-05
0.000108523
0.000115805
0.000121316
0.000125077
0.000126931
0.000126632
0.000123971
0.000118911
0.000111685
0.00010274
9.22958e-05
8.15737e-05
7.3825e-05
6.84392e-05
6.51908e-05
6.60503e-05
6.77416e-05
7.21409e-05
7.68501e-05
8.12551e-05
8.53009e-05
8.88805e-05
9.17985e-05
9.376e-05
9.44591e-05
9.36978e-05
9.1393e-05
8.76198e-05
7.95935e-05
7.14281e-05
6.15691e-05
4.34191e-05
1.88736e-05
3.99436e-06
5.58412e-07
2.16588e-05
4.98314e-05
7.18587e-05
8.82923e-05
0.000100835
0.000110596
0.000118238
0.000124048
0.000128055
0.00013011
0.00012998
0.000127456
0.000122488
0.000115291
0.000106391
9.60245e-05
8.5432e-05
7.71511e-05
7.1046e-05
6.68926e-05
6.6942e-05
6.83812e-05
7.21386e-05
7.66984e-05
8.11705e-05
8.54757e-05
8.95533e-05
9.32213e-05
9.6076e-05
9.75989e-05
9.74164e-05
9.54344e-05
9.17658e-05
8.51371e-05
7.54936e-05
6.64957e-05
4.87119e-05
2.25472e-05
4.64108e-06
5.57288e-07
2.15748e-05
4.9786e-05
7.21308e-05
8.89843e-05
0.000101908
0.000112041
0.000120008
0.000126092
0.00013033
0.000132596
0.000132687
0.000130427
0.000125798
0.000119005
0.000110496
0.000100437
8.99359e-05
8.10664e-05
7.4148e-05
6.92975e-05
6.78336e-05
6.87733e-05
7.16396e-05
7.57732e-05
8.01333e-05
8.45794e-05
8.91192e-05
9.36242e-05
9.75887e-05
0.000100206
0.000100804
9.92653e-05
9.55665e-05
8.98864e-05
7.93112e-05
7.04944e-05
5.29511e-05
2.59815e-05
5.25016e-06
5.5373e-07
2.13884e-05
4.95374e-05
7.20851e-05
8.92453e-05
0.000102546
0.000113036
0.000121322
0.000127689
0.00013219
0.000134728
0.000135137
0.000133279
0.000129119
0.000122818
0.000114747
0.000105216
9.50244e-05
8.5718e-05
7.80512e-05
7.22332e-05
6.95027e-05
6.92601e-05
7.10947e-05
7.4489e-05
7.85167e-05
8.2965e-05
8.7894e-05
9.32578e-05
9.84798e-05
0.000102403
0.000104061
0.000102869
9.91268e-05
9.33379e-05
8.32164e-05
7.37069e-05
5.65336e-05
2.89364e-05
5.84397e-06
5.47799e-07
2.11917e-05
4.92048e-05
7.18804e-05
8.93641e-05
0.00010299
0.00011378
0.000122351
0.000128999
0.000133798
0.000136675
0.000137489
0.00013612
0.000132539
0.000126863
0.000119373
0.000110389
0.000100589
9.11716e-05
8.29135e-05
7.61777e-05
7.20099e-05
7.06232e-05
7.11504e-05
7.34362e-05
7.68876e-05
8.11967e-05
8.64074e-05
9.2566e-05
9.90982e-05
0.000104627
0.000107384
0.000106401
0.000102452
9.62584e-05
8.67807e-05
7.61245e-05
5.95057e-05
3.16929e-05
6.43882e-06
5.40321e-07
2.09386e-05
4.87124e-05
7.14487e-05
8.91566e-05
0.00010307
0.000114164
0.000123039
0.000129997
0.000135129
0.000138385
0.000139651
0.00013882
0.00013586
0.000130865
0.000124065
0.000115801
0.00010652
9.72296e-05
8.87655e-05
8.14358e-05
7.57196e-05
7.29994e-05
7.24744e-05
7.36278e-05
7.59386e-05
7.99839e-05
8.53496e-05
9.225e-05
0.000100128
0.00010694
0.00011041
0.000109823
0.000105573
9.87783e-05
8.9591e-05
7.81449e-05
6.18991e-05
3.40083e-05
7.02204e-06
5.32298e-07
2.06192e-05
4.81037e-05
7.08433e-05
8.87078e-05
0.000102847
0.000114193
0.000123333
0.000130577
0.000136033
0.000139677
0.000141418
0.000141164
0.000138883
0.000134648
0.000128648
0.000121191
0.00011271
0.0001037
9.53535e-05
8.77647e-05
8.12892e-05
7.67893e-05
7.49638e-05
7.53898e-05
7.68515e-05
8.00126e-05
8.54892e-05
9.29313e-05
0.000101546
0.000109231
0.000113563
0.000113167
0.000108469
0.000100918
9.16444e-05
7.96942e-05
6.38101e-05
3.61032e-05
7.61979e-06
5.24671e-07
2.02403e-05
4.74242e-05
7.01133e-05
8.80828e-05
0.000102405
0.000113969
0.000123351
0.000130868
0.000136646
0.000140685
0.000142915
0.000143261
0.00014169
0.000138255
0.000133113
0.000126522
0.000118839
0.00011045
0.000102351
9.48821e-05
8.82274e-05
8.26377e-05
7.93067e-05
7.82929e-05
7.93376e-05
8.18384e-05
8.68763e-05
9.45247e-05
0.00010363
0.000112014
0.000116817
0.000116246
0.000110812
0.000102662
9.29481e-05
8.08282e-05
6.53026e-05
3.78925e-05
8.21377e-06
5.16592e-07
1.98272e-05
4.6685e-05
6.92863e-05
8.73243e-05
0.000101787
0.000113535
0.000123134
0.000130907
0.000136997
0.000141427
0.000144148
0.000145098
0.000144246
0.00014163
0.000137374
0.000131694
0.000124896
0.000117364
0.000109533
0.000102447
9.58259e-05
9.00009e-05
8.57437e-05
8.35517e-05
8.36836e-05
8.54611e-05
8.99514e-05
9.75387e-05
0.0001067
0.000115265
0.000119971
0.000118963
0.000112711
0.000103563
9.35734e-05
8.15527e-05
6.64362e-05
3.95335e-05
8.82547e-06
5.08183e-07
1.94191e-05
4.59249e-05
6.84013e-05
8.64712e-05
0.000101039
0.000112939
0.000122728
0.000130737
0.000137124
0.000141931
0.000145131
0.000146675
0.000146533
0.00014473
0.000141363
0.00013661
0.000130725
0.000124025
0.000116806
0.00011006
0.000103773
9.80977e-05
9.33798e-05
9.05514e-05
8.98991e-05
9.1153e-05
9.4857e-05
0.00010182
0.000110578
0.000118685
0.00012312
0.000121624
0.000114405
0.000104079
9.33459e-05
8.18848e-05
6.72417e-05
4.0999e-05
9.43781e-06
4.99811e-07
1.9039e-05
4.51795e-05
6.75001e-05
8.5565e-05
0.000100208
0.000112229
0.000122183
0.000130404
0.000137066
0.00014223
0.000145887
0.000148
0.000148544
0.000147531
0.000145035
0.0001412
0.000136237
0.00013042
0.000124086
0.000117549
0.000111751
0.000106263
0.000101656
9.83658e-05
9.71669e-05
9.79467e-05
0.000100912
0.000106937
0.000114854
0.000122321
0.000126071
0.000123684
0.000115393
0.000104154
9.29856e-05
8.18952e-05
6.78106e-05
4.23852e-05
1.00642e-05
4.91865e-07
1.87003e-05
4.44803e-05
6.66236e-05
8.46513e-05
9.93426e-05
0.000111456
0.000121549
0.000129958
0.00013687
0.000142363
0.000146446
0.000149094
0.000150285
0.000150023
0.000148363
0.000145417
0.000141358
0.000136417
0.000130875
0.000125018
0.000119433
0.000114365
0.000109865
0.000106517
0.000105003
0.000105199
0.000107408
0.000112387
0.000119334
0.000125789
0.000128527
0.000125093
0.000115668
0.000103487
9.2147e-05
8.14285e-05
6.82036e-05
4.3644e-05
1.0689e-05
4.84776e-07
1.84193e-05
4.38593e-05
6.58144e-05
8.37798e-05
9.8494e-05
0.000110675
0.000120879
0.000129449
0.000136582
0.00014237
0.00014684
0.000149978
0.000151766
0.000152204
0.000151329
0.000149226
0.000146035
0.000141945
0.000137199
0.000132088
0.000126852
0.000122124
0.000117819
0.000114474
0.000112745
0.000112437
0.000113887
0.000117855
0.000123625
0.000128816
0.000130364
0.000125811
0.000115269
0.000102186
9.05767e-05
8.04455e-05
6.84114e-05
4.49031e-05
1.13181e-05
4.78997e-07
1.82132e-05
4.33501e-05
6.51182e-05
8.30039e-05
9.77172e-05
0.000109939
0.000120227
0.000128925
0.000136241
0.000142283
0.00014709
0.000150663
0.000152987
0.000154061
0.000153907
0.000152588
0.000150212
0.000146933
0.00014295
0.000138504
0.000133861
0.000129398
0.000125315
0.000121968
0.000120007
0.000119246
0.000120004
0.000122928
0.000127382
0.000131174
0.000131449
0.000125789
0.000114226
0.000100403
8.88182e-05
7.97479e-05
6.84331e-05
4.61519e-05
1.19371e-05
4.75099e-07
1.80984e-05
4.29891e-05
6.4585e-05
8.23812e-05
9.7068e-05
0.000109301
0.000119634
0.000128415
0.000135863
0.000142099
0.000147178
0.000151113
0.000153897
0.000155527
0.000156017
0.000155408
0.000153782
0.000151258
0.000147998
0.0001442
0.000140096
0.000135963
0.000132266
0.000128904
0.000126667
0.000125493
0.000125555
0.000127279
0.000130296
0.000132608
0.000131601
0.000124925
0.000112472
9.8072e-05
8.64822e-05
7.82731e-05
6.81351e-05
4.74065e-05
1.25457e-05
4.74268e-07
1.81221e-05
4.2829e-05
6.42762e-05
8.19722e-05
9.65934e-05
0.000108784
0.000119096
0.000127888
0.000135387
0.000141727
0.00014698
0.000151175
0.000154317
0.000156402
0.000157436
0.000157445
0.000156484
0.000154644
0.000152052
0.000148864
0.000145271
0.000141487
0.000137948
0.00013473
0.000132255
0.000130636
0.000129877
0.000130363
0.000131911
0.000132733
0.000130524
0.000123014
0.000109864
9.52063e-05
8.37852e-05
7.63848e-05
6.75651e-05
4.86531e-05
1.31336e-05
4.75618e-07
1.82945e-05
4.29513e-05
6.42747e-05
8.18259e-05
9.62951e-05
0.000108357
0.000118543
0.000127196
0.000134567
0.000140847
0.00014612
0.000150428
0.000153785
0.000156191
0.000157643
0.000158135
0.000157722
0.000156468
0.000154465
0.000151831
0.000148712
0.000145274
0.000141872
0.00013866
0.000135881
0.000133834
0.000132277
0.000131499
0.000131534
0.000130917
0.000127688
0.000119662
0.000106228
9.1605e-05
8.06946e-05
7.41526e-05
6.67281e-05
4.98349e-05
1.36989e-05
4.81218e-07
1.8543e-05
4.32723e-05
6.44919e-05
8.18896e-05
9.61749e-05
0.000108013
0.000117939
0.000126334
0.000133456
0.00013944
0.00014443
0.000148507
0.000151708
0.000154044
0.000155543
0.000156284
0.000156241
0.000155431
0.000153906
0.000151741
0.000149037
0.000145911
0.000142638
0.000139409
0.000136317
0.000133744
0.000131451
0.000129493
0.000127958
0.00012588
0.000121512
0.000113441
0.000100856
8.70724e-05
7.6996e-05
7.15038e-05
6.59055e-05
5.08961e-05
1.42398e-05
4.95127e-07
1.8887e-05
4.37785e-05
6.49293e-05
8.20256e-05
9.58335e-05
0.000107089
0.000116367
0.00012409
0.00013056
0.000135997
0.000140525
0.000144203
0.00014708
0.000149211
0.000150619
0.000151296
0.000151272
0.000150568
0.000149217
0.000147272
0.000144804
0.000141884
0.000138677
0.000135421
0.000132044
0.000128868
0.000125858
0.000122753
0.000119733
0.000116535
0.000111795
0.000103986
9.21865e-05
7.95763e-05
7.19235e-05
6.85989e-05
6.48776e-05
5.16565e-05
1.47624e-05
5.20081e-07
1.94827e-05
4.46874e-05
6.55473e-05
8.18488e-05
9.4554e-05
0.000104531
0.000112448
0.000118801
0.000123954
0.000128189
0.000131655
0.00013446
0.000136663
0.000138288
0.000139329
0.000139778
0.000139654
0.000138966
0.000137721
0.000135927
0.000133591
0.000130775
0.000127551
0.000124173
0.000120535
0.000116885
0.000113273
0.000109453
0.000105553
0.000101533
9.6772e-05
9.06846e-05
8.25331e-05
7.36774e-05
6.72107e-05
6.51556e-05
6.34563e-05
5.13367e-05
1.52875e-05
5.55093e-07
2.02984e-05
4.57459e-05
6.55027e-05
7.97862e-05
9.00944e-05
9.75791e-05
0.000103077
0.000107171
0.000110243
0.00011256
0.000114316
0.000115633
0.000116578
0.000117173
0.000117424
0.00011731
0.00011681
0.000115903
0.000114578
0.000112828
0.000110664
0.000108099
0.000105169
0.000101984
9.85732e-05
9.50523e-05
9.14762e-05
8.78613e-05
8.43039e-05
8.08627e-05
7.72748e-05
7.33981e-05
6.88578e-05
6.41891e-05
6.19631e-05
6.32372e-05
6.18966e-05
5.06385e-05
1.58851e-05
6.15555e-07
2.13562e-05
4.59298e-05
6.235e-05
7.24586e-05
7.86138e-05
8.22768e-05
8.43584e-05
8.54485e-05
8.59379e-05
8.60596e-05
8.59669e-05
8.57455e-05
8.5438e-05
8.50516e-05
8.45794e-05
8.39984e-05
8.32812e-05
8.2396e-05
8.13231e-05
8.0044e-05
7.85573e-05
7.68594e-05
7.49747e-05
7.29399e-05
7.08148e-05
6.86606e-05
6.65537e-05
6.45594e-05
6.27541e-05
6.12365e-05
5.99507e-05
5.90186e-05
5.79241e-05
5.72298e-05
5.73876e-05
5.95044e-05
5.95521e-05
4.93727e-05
1.62725e-05
6.88655e-07
2.21364e-05
4.28795e-05
5.20639e-05
5.57358e-05
5.69025e-05
5.68508e-05
5.62386e-05
5.54284e-05
5.46174e-05
5.38927e-05
5.32946e-05
5.2829e-05
5.24919e-05
5.22623e-05
5.21223e-05
5.20419e-05
5.20015e-05
5.19707e-05
5.19367e-05
5.18766e-05
5.17905e-05
5.16655e-05
5.15198e-05
5.1352e-05
5.12127e-05
5.11489e-05
5.12127e-05
5.14241e-05
5.1821e-05
5.2463e-05
5.331e-05
5.4532e-05
5.56727e-05
5.67247e-05
5.76361e-05
5.91841e-05
5.74057e-05
4.76903e-05
1.64433e-05
8.38605e-07
2.22796e-05
3.32201e-05
3.4579e-05
3.4656e-05
3.45045e-05
3.43608e-05
3.43316e-05
3.44586e-05
3.47497e-05
3.51885e-05
3.5759e-05
3.64383e-05
3.7212e-05
3.80588e-05
3.89679e-05
3.99202e-05
4.09089e-05
4.19179e-05
4.29452e-05
4.39777e-05
4.50197e-05
4.60613e-05
4.71163e-05
4.81701e-05
4.92561e-05
5.04907e-05
5.18308e-05
5.3234e-05
5.46903e-05
5.62073e-05
5.77102e-05
5.92705e-05
6.06223e-05
6.15806e-05
6.16776e-05
6.10361e-05
5.48142e-05
4.43106e-05
1.64514e-05
1.18887e-06
2.13945e-05
2.57069e-05
2.75014e-05
2.95441e-05
3.14133e-05
3.31883e-05
3.48958e-05
3.65375e-05
3.8115e-05
3.96334e-05
4.10987e-05
4.25154e-05
4.38852e-05
4.52096e-05
4.64887e-05
4.77242e-05
4.89166e-05
5.00691e-05
5.11824e-05
5.22615e-05
5.33066e-05
5.43252e-05
5.53163e-05
5.62874e-05
5.72479e-05
5.81478e-05
5.89912e-05
5.98344e-05
6.06371e-05
6.14906e-05
6.23002e-05
6.3183e-05
6.40694e-05
6.40391e-05
6.29553e-05
5.96751e-05
5.1686e-05
3.78803e-05
1.54539e-05
8.38202e-07
1.47583e-06
2.36101e-06
3.2092e-06
4.0207e-06
4.77075e-06
5.47327e-06
6.14637e-06
6.80282e-06
7.44702e-06
8.08105e-06
8.70403e-06
9.31709e-06
9.91868e-06
1.05107e-05
1.10898e-05
1.16596e-05
1.22135e-05
1.27587e-05
1.32841e-05
1.38028e-05
1.42965e-05
1.47881e-05
1.5248e-05
1.57133e-05
1.61381e-05
1.65815e-05
1.69652e-05
1.73806e-05
1.7714e-05
1.8091e-05
1.83526e-05
1.86517e-05
1.88078e-05
1.89891e-05
1.90893e-05
1.90059e-05
1.86239e-05
1.75902e-05
1.43132e-05
)
;

boundaryField
{
    movingWall
    {
        type            nutkWallFunction;
        Cmu             0.09;
        kappa           0.41;
        E               9.8;
        value           uniform 0;
    }
    fixedWalls
    {
        type            nutkWallFunction;
        Cmu             0.09;
        kappa           0.41;
        E               9.8;
        value           uniform 0;
    }
    frontAndBack
    {
        type            empty;
    }
}


// ************************************************************************* //
