/*--------------------------------*- C++ -*----------------------------------*\
  =========                 |
  \\      /  F ield         | OpenFOAM: The Open Source CFD Toolbox
   \\    /   O peration     | Website:  https://openfoam.org
    \\  /    A nd           | Version:  12
     \\/     M anipulation  |
\*---------------------------------------------------------------------------*/
FoamFile
{
    format      ascii;
    class       volScalarField;
    location    "1.5";
    object      p;
}
// * * * * * * * * * * * * * * * * * * * * * * * * * * * * * * * * * * * * * //

dimensions      [0 2 -2 0 0 0 0];

internalField   nonuniform List<scalar> 
1600
(
-2.75626e-09
-8.22631e-06
-2.04404e-05
-3.17086e-05
-4.10871e-05
-4.86477e-05
-5.47934e-05
-6.00314e-05
-6.48235e-05
-6.95114e-05
-7.42366e-05
-7.88298e-05
-8.26723e-05
-8.45391e-05
-8.24582e-05
-7.36403e-05
-5.45507e-05
-2.1118e-05
3.10727e-05
0.000106997
0.000212548
0.000353816
0.000536786
0.000771698
0.00107125
0.00143133
0.00183733
0.00227288
0.00270169
0.00308168
0.00337461
0.00355606
0.00361954
0.00358227
0.00347776
0.00335619
0.00325085
0.00317635
0.00313822
0.0031305
7.9386e-06
2.3626e-08
-9.10027e-06
-1.71304e-05
-2.33911e-05
-2.80796e-05
-3.15906e-05
-3.4298e-05
-3.65519e-05
-3.86409e-05
-4.07385e-05
-4.28362e-05
-4.46605e-05
-4.55603e-05
-4.43485e-05
-3.9095e-05
-2.69491e-05
-4.07749e-06
3.43131e-05
9.3873e-05
0.000180877
0.000301991
0.000465105
0.000680642
0.000956965
0.00128982
0.00167538
0.00209516
0.00251636
0.00289713
0.0032002
0.00339902
0.0034835
0.00346846
0.00338855
0.00328694
0.00319951
0.00314356
0.00311677
0.00311207
2.08172e-05
9.63666e-06
-2.21825e-07
-6.06703e-06
-8.54149e-06
-9.32315e-06
-9.14377e-06
-8.36258e-06
-7.30182e-06
-6.29454e-06
-5.67139e-06
-5.73089e-06
-6.68326e-06
-8.54608e-06
-1.09635e-05
-1.29571e-05
-1.26015e-05
-6.76749e-06
9.02291e-06
4.06773e-05
9.55266e-05
0.000182298
0.000311388
0.000493224
0.000733084
0.00104629
0.00141718
0.00183268
0.00226368
0.00266734
0.00300247
0.00323667
0.00335404
0.00336377
0.0033006
0.00321065
0.00313407
0.00309127
0.00307297
0.00306969
2.97817e-05
1.44831e-05
5.09894e-07
-6.32231e-06
-7.05599e-06
-5.2167e-06
-2.29358e-06
1.08001e-06
4.39258e-06
7.07452e-06
8.45157e-06
7.74139e-06
4.10481e-06
-3.22042e-06
-1.46783e-05
-3.00296e-05
-4.79608e-05
-6.57582e-05
-7.90858e-05
-8.1781e-05
-6.57317e-05
-2.08154e-05
6.53116e-05
0.000207118
0.000418912
0.000697687
0.0010528
0.00146898
0.00191951
0.0023646
0.00275516
0.00304819
0.00321965
0.00326953
0.00322757
0.0031423
0.00306169
0.00301572
0.00301018
0.00301044
2.88998e-05
8.60986e-06
-1.22897e-05
-2.35753e-05
-2.5812e-05
-2.41544e-05
-2.10267e-05
-1.75726e-05
-1.47045e-05
-1.34033e-05
-1.4815e-05
-2.02664e-05
-3.119e-05
-4.89362e-05
-7.44715e-05
-0.000108002
-0.000148639
-0.000194167
-0.000240894
-0.000283494
-0.000314692
-0.00032474
-0.000300698
-0.000225684
-8.11924e-05
0.000143143
0.000455376
0.000844461
0.00129312
0.00177636
0.00224863
0.00265067
0.00293593
0.00308937
0.00312567
0.00307759
0.0030003
0.00294653
0.00294371
0.00294656
1.26044e-05
-1.26409e-05
-4.13984e-05
-5.90514e-05
-6.52697e-05
-6.6406e-05
-6.57671e-05
-6.50735e-05
-6.57284e-05
-6.91966e-05
-7.71224e-05
-9.13353e-05
-0.000113736
-0.000146064
-0.000189596
-0.000244889
-0.000311698
-0.000389129
-0.000475769
-0.00056939
-0.000665978
-0.000758127
-0.00083329
-0.00087189
-0.00084821
-0.000737427
-0.000529398
-0.000216008
0.000205078
0.000716209
0.00126921
0.00181116
0.00229754
0.0026799
0.00290915
0.00298577
0.00296364
0.00290346
0.00289175
0.00288881
-2.27488e-05
-5.24271e-05
-8.87432e-05
-0.000113443
-0.000125207
-0.000131154
-0.000135322
-0.000139973
-0.000146996
-0.00015833
-0.000176075
-0.000202476
-0.000239777
-0.00028999
-0.000354701
-0.000435118
-0.000532475
-0.000648715
-0.000786866
-0.000950399
-0.00114097
-0.00135421
-0.00157516
-0.00177652
-0.00192145
-0.0019721
-0.00189581
-0.00167691
-0.00131128
-0.000809761
-0.000196575
0.000500206
0.0012251
0.00189317
0.00242647
0.002768
0.00291178
0.0029185
0.00287358
0.00284531
-7.90556e-05
-0.000112351
-0.000155322
-0.000187052
-0.00020527
-0.000217493
-0.000228308
-0.000240445
-0.000256233
-0.000278038
-0.000308357
-0.000349783
-0.000404858
-0.000475906
-0.00056508
-0.00067486
-0.000809088
-0.000974159
-0.00117947
-0.001436
-0.00175119
-0.00211996
-0.00251897
-0.00290558
-0.00322571
-0.00342608
-0.00347143
-0.00334271
-0.00303401
-0.00255301
-0.00191191
-0.00112864
-0.00024542
0.000677652
0.00155261
0.00225983
0.00271311
0.00292782
0.00287221
0.00280114
-0.000156706
-0.000192578
-0.000241043
-0.000279381
-0.000304488
-0.000323966
-0.000342784
-0.000364053
-0.000390482
-0.000424812
-0.000469897
-0.000528662
-0.000603995
-0.000698726
-0.000815995
-0.000960273
-0.00113899
-0.00136407
-0.00165231
-0.00202278
-0.00248542
-0.00302982
-0.00361797
-0.0041879
-0.00467048
-0.00500912
-0.00516121
-0.00510544
-0.00484123
-0.00437484
-0.00372033
-0.0028959
-0.00192561
-0.000846362
0.000284949
0.00136132
0.00221947
0.00273986
0.00288241
0.00272715
-0.000254666
-0.000292235
-0.000344844
-0.000389116
-0.000421173
-0.000448456
-0.000476165
-0.000507705
-0.000546107
-0.000594443
-0.00065591
-0.000733797
-0.000831459
-0.000952489
-0.00110144
-0.00128532
-0.00151559
-0.00181
-0.00219323
-0.00269007
-0.00330876
-0.0040297
-0.00479644
-0.00552898
-0.00614674
-0.00659006
-0.00682064
-0.00682542
-0.00660412
-0.00616496
-0.00552071
-0.00468446
-0.00366938
-0.00249441
-0.00119287
0.000156869
0.00139714
0.00231755
0.00278402
0.00254827
-0.000370952
-0.000409503
-0.00046493
-0.000514276
-0.000553033
-0.000588293
-0.000625337
-0.00066779
-0.000718948
-0.000782185
-0.000861038
-0.000959217
-0.00108068
-0.00123001
-0.00141347
-0.00164074
-0.00192714
-0.00229582
-0.00277857
-0.00340094
-0.00416843
-0.00504846
-0.00596643
-0.00682724
-0.00754384
-0.00805784
-0.00833756
-0.00838329
-0.00819036
-0.00777303
-0.00714587
-0.00632091
-0.00530561
-0.00410356
-0.00272099
-0.00119557
0.000337611
0.00163419
0.00240799
0.00250235
-0.000503068
-0.000541833
-0.000598861
-0.000652331
-0.000697304
-0.000740377
-0.000786798
-0.000840331
-0.000904488
-0.000982917
-0.0010795
-0.0011984
-0.00134429
-0.00152285
-0.00174205
-0.00201402
-0.00235722
-0.00279975
-0.00337606
-0.00411128
-0.00500772
-0.00601816
-0.00705325
-0.00800787
-0.00879343
-0.00935595
-0.00967508
-0.00973762
-0.00956243
-0.00916377
-0.00855767
-0.00775644
-0.00676575
-0.00558166
-0.00419123
-0.00259512
-0.000891001
0.00067605
0.00188567
0.00260679
-0.00064804
-0.000686275
-0.000743783
-0.000800382
-0.000850897
-0.000901336
-0.000956804
-0.00102114
-0.00109801
-0.00119131
-0.00130525
-0.00144446
-0.00161431
-0.00182156
-0.00207566
-0.00239049
-0.00278688
-0.00329625
-0.00395246
-0.00477924
-0.00577567
-0.00688301
-0.00800109
-0.00901965
-0.0098508
-0.0104438
-0.0107807
-0.0108604
-0.0106994
-0.0103178
-0.00973576
-0.00896802
-0.00802049
-0.00688696
-0.00554556
-0.00397498
-0.00221842
-0.000509425
0.000995486
0.00207619
-0.000802619
-0.000839654
-0.00089662
-0.000955332
-0.00101057
-0.00106768
-0.00113153
-0.00120597
-0.00129478
-0.00140204
-0.00153223
-0.00169041
-0.00188256
-0.00211629
-0.0024021
-0.00275504
-0.00319744
-0.00376122
-0.00447954
-0.00536846
-0.00643237
-0.00760221
-0.00877232
-0.00983052
-0.01069
-0.0113024
-0.0116518
-0.0117422
-0.0115924
-0.0112271
-0.0106711
-0.00994286
-0.00905059
-0.00798961
-0.00673864
-0.00526353
-0.00356236
-0.00183936
-0.000316363
0.000814052
-0.000963477
-0.000998738
-0.00105424
-0.00111405
-0.00117307
-0.00123593
-0.00130721
-0.0013907
-0.00149022
-0.00160996
-0.00175459
-0.00192949
-0.00214107
-0.00239759
-0.00271023
-0.00309445
-0.00357192
-0.00417261
-0.00493306
-0.00585729
-0.00695086
-0.00815025
-0.00934438
-0.0104218
-0.0112965
-0.0119207
-0.012279
-0.0123779
-0.0122389
-0.011891
-0.0113637
-0.01068
-0.00985164
-0.00887668
-0.00773888
-0.00640229
-0.00483886
-0.00316187
-0.00176193
-0.000780377
-0.00112737
-0.00116038
-0.0012136
-0.00127352
-0.00133529
-0.00140284
-0.00148036
-0.00157154
-0.00168015
-0.00181044
-0.00196718
-0.00215593
-0.00238337
-0.00265799
-0.00299113
-0.00339791
-0.00389796
-0.00451764
-0.00529063
-0.00622878
-0.00732129
-0.00851588
-0.00970717
-0.0107851
-0.0116635
-0.0122932
-0.0126582
-0.0127654
-0.0126387
-0.0123111
-0.0118161
-0.0111813
-0.0104223
-0.00954104
-0.00852703
-0.00735139
-0.00597796
-0.00443754
-0.00321373
-0.00240611
-0.00129127
-0.00132165
-0.0013719
-0.001431
-0.00149447
-0.00156554
-0.00164797
-0.00174526
-0.00186111
-0.0019997
-0.00216583
-0.00236509
-0.00260415
-0.00289134
-0.00323748
-0.00365671
-0.00416658
-0.00478911
-0.00555172
-0.00647666
-0.0075403
-0.00869947
-0.00986208
-0.0109216
-0.0117917
-0.0124208
-0.0127904
-0.0129068
-0.0127955
-0.0124923
-0.0120345
-0.0114528
-0.0107664
-0.00998107
-0.00908953
-0.00807045
-0.00689175
-0.00558024
-0.00452572
-0.00386241
-0.00145245
-0.0014799
-0.00152659
-0.00158402
-0.00164814
-0.00172148
-0.00180736
-0.00190905
-0.00203011
-0.00217458
-0.00234711
-0.00255315
-0.00279912
-0.00309287
-0.00344433
-0.00386628
-0.00437405
-0.00498563
-0.00572281
-0.0066069
-0.00761545
-0.00871371
-0.00982273
-0.0108439
-0.0116917
-0.0123122
-0.0126837
-0.0128106
-0.0127183
-0.012445
-0.01203
-0.0115059
-0.010894
-0.0102032
-0.00942923
-0.00855738
-0.00756269
-0.00648485
-0.00561038
-0.00506083
-0.00160856
-0.00163283
-0.00167547
-0.00173044
-0.00179414
-0.00186846
-0.00195629
-0.00206061
-0.00218475
-0.00233254
-0.00250841
-0.00271748
-0.00296574
-0.00326039
-0.00361028
-0.00402637
-0.00452158
-0.00511056
-0.00580963
-0.00663356
-0.00756782
-0.0085837
-0.00961534
-0.0105759
-0.0113854
-0.0119878
-0.012357
-0.0124948
-0.0124256
-0.0121878
-0.0118212
-0.0113584
-0.0108212
-0.0102211
-0.00955742
-0.00882047
-0.00799419
-0.00712575
-0.00641459
-0.00596491
-0.0017577
-0.00177854
-0.00181681
-0.00186861
-0.00193085
-0.00200489
-0.00209315
-0.0021983
-0.00232342
-0.00247206
-0.00264831
-0.00285689
-0.00310327
-0.00339375
-0.00373609
-0.00413932
-0.00461352
-0.00517044
-0.00582138
-0.0065751
-0.00742295
-0.00834052
-0.00927636
-0.0101573
-0.0109114
-0.0114833
-0.0118436
-0.0119909
-0.0119476
-0.0117502
-0.0114363
-0.0110366
-0.0105723
-0.0100567
-0.00949299
-0.0088758
-0.00819642
-0.00749868
-0.00693697
-0.00657474
-0.00189859
-0.00191558
-0.00194931
-0.00199733
-0.00205713
-0.00212965
-0.00221688
-0.00232116
-0.00244527
-0.00259243
-0.00276638
-0.00297138
-0.00321227
-0.00349421
-0.00382412
-0.00420886
-0.00465639
-0.0051749
-0.00577179
-0.00645163
-0.00720779
-0.00802035
-0.0088496
-0.00963691
-0.0103201
-0.0108484
-0.0111918
-0.0113453
-0.0113277
-0.011172
-0.0109121
-0.0105749
-0.0101795
-0.00973984
-0.00926337
-0.00874892
-0.00819376
-0.00763878
-0.00720139
-0.00691455
-0.00202936
-0.00204306
-0.00207193
-0.0021158
-0.00217222
-0.00224209
-0.00232692
-0.00242874
-0.00255004
-0.00269364
-0.00286295
-0.00306167
-0.00329397
-0.00356439
-0.00387812
-0.00424063
-0.00465767
-0.00513473
-0.00567589
-0.00628253
-0.00694836
-0.00765695
-0.00837764
-0.0090651
-0.00966786
-0.0101421
-0.0104598
-0.0106138
-0.0106183
-0.0105018
-0.0102929
-0.0100136
-0.00967974
-0.00930542
-0.00890146
-0.00847095
-0.00801728
-0.0075774
-0.00723978
-0.00701657
-0.00214941
-0.00216013
-0.00218432
-0.00222324
-0.00227568
-0.00234189
-0.00242308
-0.00252102
-0.00263788
-0.0027762
-0.00293893
-0.00312927
-0.00335075
-0.00360714
-0.00390241
-0.00424059
-0.00462556
-0.00506059
-0.00554741
-0.00608488
-0.00666656
-0.00727831
-0.00789621
-0.00848552
-0.00900577
-0.00942054
-0.00970558
-0.00985345
-0.00987386
-0.00978979
-0.00962405
-0.00939355
-0.00911093
-0.00878979
-0.00844349
-0.00807925
-0.00770619
-0.00735798
-0.00710032
-0.00692212
-0.00225913
-0.00226675
-0.00228612
-0.00231988
-0.00236756
-0.00242913
-0.00250556
-0.00259835
-0.00270941
-0.00284098
-0.00299558
-0.00317599
-0.00338512
-0.00362598
-0.00390156
-0.00421467
-0.00456767
-0.0049621
-0.00539799
-0.00587251
-0.00637889
-0.00690472
-0.00743082
-0.00793042
-0.00837238
-0.00872764
-0.00897637
-0.00911138
-0.00914038
-0.00907936
-0.00894626
-0.00875332
-0.00850962
-0.00822754
-0.00792317
-0.00760847
-0.00729459
-0.00701135
-0.00682337
-0.00666971
-0.0023584
-0.00236302
-0.00237753
-0.00240585
-0.00244811
-0.00250418
-0.00257483
-0.00266137
-0.00276548
-0.00288912
-0.00303448
-0.0032039
-0.00339977
-0.00362443
-0.00388005
-0.00416845
-0.00449082
-0.00484739
-0.00523691
-0.00565574
-0.00609679
-0.00654906
-0.00699658
-0.0074186
-0.00779107
-0.00809141
-0.0083038
-0.00842218
-0.00845132
-0.00840358
-0.00829215
-0.00812489
-0.00790749
-0.00765111
-0.007374
-0.00709286
-0.00681891
-0.00657809
-0.00644703
-0.00630106
-0.00244748
-0.00244927
-0.00245899
-0.00248159
-0.00251782
-0.00256758
-0.00263153
-0.00271086
-0.00280709
-0.00292194
-0.0030573
-0.00321514
-0.00339739
-0.00360584
-0.00384198
-0.00410684
-0.00440073
-0.00472296
-0.0050714
-0.00544192
-0.00582756
-0.0062183
-0.00660068
-0.00695809
-0.0072718
-0.0075243
-0.00770285
-0.00780234
-0.00782619
-0.0077836
-0.00768366
-0.00753093
-0.00732868
-0.00708677
-0.00682453
-0.00656115
-0.00630939
-0.00608959
-0.00600371
-0.00584768
-0.00252697
-0.00252614
-0.00253115
-0.00254778
-0.00257738
-0.00262004
-0.00267645
-0.00274775
-0.00283534
-0.00294077
-0.0030657
-0.00321176
-0.00338051
-0.00357326
-0.00379096
-0.00403402
-0.00430211
-0.00459389
-0.00490667
-0.00523606
-0.00557545
-0.00591565
-0.00624514
-0.00655019
-0.00681595
-0.0070284
-0.00717722
-0.00725811
-0.00727348
-0.00722984
-0.00713317
-0.00698586
-0.00678951
-0.00655267
-0.00629484
-0.00603659
-0.00579254
-0.0055729
-0.00552322
-0.00533467
-0.00259777
-0.00259453
-0.00259488
-0.00260524
-0.0026276
-0.00266237
-0.00271042
-0.00277295
-0.00285131
-0.00294693
-0.00306126
-0.00319568
-0.00335139
-0.00352934
-0.00373004
-0.00395341
-0.00419865
-0.00446397
-0.00474637
-0.00504135
-0.00534264
-0.00564193
-0.00592907
-0.00619252
-0.00642011
-0.0066002
-0.00672419
-0.00678835
-0.0067939
-0.00674509
-0.00664587
-0.00649734
-0.00630002
-0.00606114
-0.0058
-0.00553746
-0.00528575
-0.00504169
-0.00502084
-0.00476782
-0.00266106
-0.00265559
-0.00265127
-0.00265497
-0.00266935
-0.0026954
-0.00273428
-0.00278736
-0.002856
-0.00294157
-0.00304536
-0.0031685
-0.00331193
-0.00347625
-0.00366162
-0.0038676
-0.00409302
-0.0043358
-0.00459276
-0.00485941
-0.00512981
-0.00539645
-0.00565023
-0.00588117
-0.00607895
-0.00623373
-0.00633793
-0.00638783
-0.00638352
-0.00632743
-0.00622207
-0.00606786
-0.00586473
-0.00561875
-0.0053483
-0.00507337
-0.00480168
-0.00450658
-0.00449541
-0.00412963
-0.0027183
-0.00271078
-0.00270166
-0.00269812
-0.00270362
-0.00271994
-0.00274878
-0.00279173
-0.00285024
-0.00292562
-0.00301903
-0.00313141
-0.00326345
-0.00341545
-0.00358728
-0.00377821
-0.0039868
-0.00421075
-0.0044468
-0.00469054
-0.00493635
-0.00517734
-0.00540536
-0.00561147
-0.00578662
-0.00592223
-0.00601127
-0.00604964
-0.00603655
-0.00597273
-0.00585943
-0.00569667
-0.00548406
-0.00522671
-0.0049412
-0.00464642
-0.00434582
-0.00395749
-0.0039274
-0.00337282
-0.00277142
-0.00276195
-0.00274769
-0.00273599
-0.00273136
-0.00273677
-0.00275457
-0.00278669
-0.00283468
-0.0028998
-0.00298307
-0.00308524
-0.00320674
-0.00334767
-0.00350762
-0.00368565
-0.00388013
-0.00408863
-0.00430786
-0.00453349
-0.00476018
-0.00498154
-0.00519018
-0.00537798
-0.00553674
-0.00565865
-0.0057367
-0.0057668
-0.00574712
-0.00567656
-0.00555512
-0.00538237
-0.00515748
-0.00488463
-0.00457832
-0.00425556
-0.00391354
-0.00336146
-0.00329454
-0.00243265
-0.00282232
-0.00281129
-0.00279114
-0.00276989
-0.00275345
-0.00274641
-0.002752
-0.00277248
-0.0028095
-0.00286428
-0.00293764
-0.00303012
-0.00314192
-0.00327289
-0.00342244
-0.00358946
-0.00377218
-0.00396815
-0.00417405
-0.00438571
-0.00459801
-0.00480496
-0.00499974
-0.00517487
-0.00532273
-0.00543596
-0.00550786
-0.0055336
-0.00551002
-0.00543466
-0.00530607
-0.00512302
-0.00488414
-0.00459186
-0.00425725
-0.00389084
-0.00347275
-0.00270044
-0.00260177
-0.00124835
-0.00287581
-0.00286197
-0.00283476
-0.00280138
-0.00277059
-0.00274898
-0.00274068
-0.00274831
-0.0027736
-0.00281764
-0.00288108
-0.0029642
-0.00306696
-0.00318895
-0.00332942
-0.00348711
-0.00366019
-0.00384618
-0.00404183
-0.00424311
-0.00444515
-0.00464229
-0.00482816
-0.00499577
-0.00513788
-0.00524737
-0.0053182
-0.00534403
-0.0053201
-0.00524307
-0.00510964
-0.00491658
-0.00466063
-0.00434112
-0.00396666
-0.00353365
-0.00298472
-0.00194811
-0.00186346
0.000227108
-0.00293923
-0.00292041
-0.00288214
-0.00283238
-0.00278307
-0.00274322
-0.0027183
-0.00271101
-0.00272305
-0.00275533
-0.00280821
-0.00288169
-0.00297545
-0.00308889
-0.00322109
-0.00337072
-0.0035359
-0.00371417
-0.0039024
-0.0040967
-0.00429244
-0.00448426
-0.00466615
-0.00483152
-0.00497349
-0.00508504
-0.00515961
-0.0051905
-0.00517171
-0.00509773
-0.00496273
-0.00476015
-0.00448379
-0.00412724
-0.00369009
-0.00314467
-0.00240089
-0.00106065
-0.00092211
0.00208876
-0.00302224
-0.00299393
-0.00293763
-0.00286301
-0.00278745
-0.00272352
-0.00267739
-0.00265195
-0.00264849
-0.00266745
-0.00270871
-0.00277189
-0.00285635
-0.00296125
-0.0030856
-0.00322808
-0.00338685
-0.00355955
-0.00374318
-0.00393404
-0.00412773
-0.00431913
-0.00450247
-0.00467141
-0.00481931
-0.00493904
-0.00502327
-0.00506475
-0.00505602
-0.00498893
-0.00485454
-0.00464149
-0.00433636
-0.0039221
-0.00338008
-0.00264561
-0.00161041
9.54847e-05
0.000730796
0.0047123
-0.00314842
-0.00309982
-0.00300682
-0.00288817
-0.0027721
-0.00267498
-0.00260254
-0.00255642
-0.00253664
-0.00254247
-0.0025729
-0.00262698
-0.00270383
-0.00280237
-0.00292128
-0.00305924
-0.00321457
-0.00338504
-0.00356781
-0.00375939
-0.00395551
-0.00415121
-0.00434078
-0.0045179
-0.00467572
-0.00480723
-0.00490463
-0.00495896
-0.00496051
-0.0048982
-0.00475924
-0.00452437
-0.00416989
-0.00364986
-0.00292099
-0.00185361
-0.000328165
0.00206674
0.00377831
0.00936357
-0.00336456
-0.00325284
-0.0030769
-0.00289361
-0.00273296
-0.00260258
-0.00250556
-0.00244204
-0.00241017
-0.00240748
-0.00243162
-0.00248072
-0.00255331
-0.00264838
-0.00276473
-0.00290098
-0.00305547
-0.00322615
-0.00341033
-0.00360467
-0.003805
-0.00400647
-0.00420331
-0.00438909
-0.00455665
-0.00469854
-0.00480622
-0.00486897
-0.00487433
-0.0048069
-0.00464801
-0.00436415
-0.00391485
-0.00321066
-0.00216047
-0.000517731
0.0018659
0.00562576
0.00958845
0.0186697
-0.0038109
-0.00350972
-0.00318727
-0.00289463
-0.00267982
-0.00252413
-0.00241441
-0.00234438
-0.00230941
-0.00230547
-0.00232918
-0.0023781
-0.00245048
-0.00254523
-0.00266127
-0.00279741
-0.00295201
-0.00312322
-0.00330835
-0.00350425
-0.00370668
-0.0039109
-0.00411094
-0.00430027
-0.00447119
-0.00461528
-0.00472323
-0.00478338
-0.00478037
-0.00469326
-0.0044961
-0.00413633
-0.00354995
-0.00258059
-0.0010737
0.00143006
0.00520406
0.0114789
0.0197737
0.0353526
-0.00472022
-0.00372175
-0.00317067
-0.00280699
-0.00256306
-0.00239404
-0.00228067
-0.00221224
-0.00218067
-0.00218007
-0.00220646
-0.00225755
-0.0023317
-0.00242801
-0.00254524
-0.00268239
-0.0028377
-0.00300951
-0.00319495
-0.00339111
-0.00359349
-0.00379757
-0.00399702
-0.00418551
-0.00435456
-0.00449516
-0.00459611
-0.00464529
-0.00462716
-0.00451655
-0.00427982
-0.00385347
-0.00314287
-0.00195672
1.89955e-05
0.00354137
0.00930319
0.0194755
0.0345956
0.0593306
-0.00622834
-0.00242873
-0.0017153
-0.00165835
-0.00157142
-0.00145978
-0.00138414
-0.00135942
-0.00137409
-0.00141529
-0.00147683
-0.00155748
-0.00165763
-0.00177749
-0.00191663
-0.00207405
-0.0022484
-0.00243789
-0.00264007
-0.00285183
-0.00306907
-0.00328701
-0.00349967
-0.00370066
-0.00388183
-0.0040349
-0.00414849
-0.00420937
-0.00419536
-0.00407876
-0.00381062
-0.00333063
-0.00254749
-0.00130755
0.00089846
0.00519209
0.0135124
0.0281036
0.0512433
0.0817327
)
;

boundaryField
{
    movingWall
    {
        type            zeroGradient;
    }
    fixedWalls
    {
        type            zeroGradient;
    }
    frontAndBack
    {
        type            empty;
    }
}


// ************************************************************************* //
