/*--------------------------------*- C++ -*----------------------------------*\
  =========                 |
  \\      /  F ield         | OpenFOAM: The Open Source CFD Toolbox
   \\    /   O peration     | Website:  https://openfoam.org
    \\  /    A nd           | Version:  12
     \\/     M anipulation  |
\*---------------------------------------------------------------------------*/
FoamFile
{
    format      ascii;
    class       surfaceScalarField;
    location    "1.5";
    object      phi;
}
// * * * * * * * * * * * * * * * * * * * * * * * * * * * * * * * * * * * * * //

dimensions      [0 3 -1 0 0 0 0];

internalField   nonuniform List<scalar> 
3120
(
5.95719e-09
-5.95693e-09
1.7354e-09
4.22177e-09
-1.46333e-08
1.63686e-08
-3.96731e-08
2.50399e-08
-6.96658e-08
2.99927e-08
-1.0234e-07
3.26743e-08
-1.36648e-07
3.43075e-08
-1.72244e-07
3.55967e-08
-2.09218e-07
3.69738e-08
-2.47978e-07
3.87598e-08
-2.89217e-07
4.12389e-08
-3.33902e-07
4.46851e-08
-3.83259e-07
4.93569e-08
-4.38718e-07
5.54592e-08
-5.01783e-07
6.30651e-08
-5.73776e-07
7.19928e-08
-6.55427e-07
8.16511e-08
-7.46335e-07
9.09086e-08
-8.44433e-07
9.80975e-08
-9.45709e-07
1.01276e-07
-1.04434e-06
9.86265e-08
-1.13305e-06
8.87181e-08
-1.20384e-06
7.07889e-08
-1.2496e-06
4.57556e-08
-1.26533e-06
1.57274e-08
-1.24219e-06
-2.31325e-08
-1.17862e-06
-6.35689e-08
-1.07447e-06
-1.04153e-07
-9.31698e-07
-1.42773e-07
-7.58822e-07
-1.72876e-07
-5.68596e-07
-1.90226e-07
-3.75274e-07
-1.93322e-07
-1.96822e-07
-1.78452e-07
-5.06565e-08
-1.46165e-07
5.17391e-08
-1.02396e-07
1.06677e-07
-5.49377e-08
1.17375e-07
-1.06984e-08
9.21408e-08
2.52346e-08
4.46264e-08
4.75144e-08
4.46264e-08
-5.44786e-09
-5.09068e-10
-2.9405e-08
2.81789e-08
-7.07777e-08
5.77413e-08
-1.23604e-07
7.78663e-08
-1.83598e-07
8.99861e-08
-2.4844e-07
9.75164e-08
-3.17074e-07
1.02942e-07
-3.89267e-07
1.07789e-07
-4.6532e-07
1.13027e-07
-5.45889e-07
1.19329e-07
-6.31826e-07
1.27175e-07
-7.24003e-07
1.36862e-07
-8.23074e-07
1.48429e-07
-9.29175e-07
1.6156e-07
-1.0416e-06
1.75485e-07
-1.15855e-06
1.88945e-07
-1.27713e-06
2.00236e-07
-1.39359e-06
2.07363e-07
-1.50373e-06
2.08246e-07
-1.6034e-06
2.00945e-07
-1.68856e-06
1.83789e-07
-1.75525e-06
1.55405e-07
-1.79954e-06
1.15077e-07
-1.81715e-06
6.33677e-08
-1.80124e-06
-1.88971e-10
-1.74979e-06
-7.45743e-08
-1.65734e-06
-1.56024e-07
-1.52244e-06
-2.39049e-07
-1.34709e-06
-3.18129e-07
-1.13737e-06
-3.82589e-07
-9.03492e-07
-4.24107e-07
-6.60276e-07
-4.36538e-07
-4.26886e-07
-4.11842e-07
-2.2348e-07
-3.49571e-07
-6.78094e-08
-2.58066e-07
3.15053e-08
-1.54252e-07
7.77849e-08
-5.6978e-08
7.96093e-08
2.34101e-08
4.51924e-08
8.19314e-08
8.98188e-08
-2.09352e-08
2.04262e-08
-6.44251e-08
7.16688e-08
-1.20127e-07
1.13443e-07
-1.84193e-07
1.41932e-07
-2.54971e-07
1.60765e-07
-3.31378e-07
1.73923e-07
-4.12875e-07
1.84439e-07
-4.9942e-07
1.94334e-07
-5.91328e-07
2.04936e-07
-6.89103e-07
2.17103e-07
-7.93218e-07
2.3129e-07
-9.03871e-07
2.47515e-07
-1.02071e-06
2.65265e-07
-1.14258e-06
2.83436e-07
-1.26747e-06
3.00366e-07
-1.39253e-06
3.14012e-07
-1.51454e-06
3.22246e-07
-1.63034e-06
3.23161e-07
-1.73725e-06
3.1516e-07
-1.83312e-06
2.9681e-07
-1.916e-06
2.6667e-07
-1.98376e-06
2.23166e-07
-2.03337e-06
1.64685e-07
-2.0597e-06
8.96967e-08
-2.05997e-06
8.25931e-11
-2.02387e-06
-1.10676e-07
-1.94803e-06
-2.31864e-07
-1.82731e-06
-3.59772e-07
-1.65989e-06
-4.85541e-07
-1.44784e-06
-5.94646e-07
-1.1971e-06
-6.74847e-07
-9.22261e-07
-7.11375e-07
-6.44995e-07
-6.89108e-07
-3.90927e-07
-6.0364e-07
-1.86643e-07
-4.6235e-07
-4.99339e-08
-2.90961e-07
2.03991e-08
-1.27311e-07
4.20993e-08
1.71002e-09
2.96271e-08
9.44036e-08
1.19446e-07
-3.46493e-08
5.50755e-08
-9.12465e-08
1.28266e-07
-1.55596e-07
1.77792e-07
-2.25646e-07
2.11982e-07
-3.01354e-07
2.36473e-07
-3.82677e-07
2.55247e-07
-4.69609e-07
2.71371e-07
-5.62293e-07
2.87017e-07
-6.61e-07
3.03643e-07
-7.66001e-07
3.22104e-07
-8.77367e-07
3.42656e-07
-9.94747e-07
3.64895e-07
-1.11719e-06
3.87709e-07
-1.24308e-06
4.09326e-07
-1.37026e-06
4.27548e-07
-1.49638e-06
4.4013e-07
-1.61931e-06
4.45179e-07
-1.73751e-06
4.41358e-07
-1.85014e-06
4.27785e-07
-1.95692e-06
4.03597e-07
-2.05759e-06
3.67333e-07
-2.15091e-06
3.16485e-07
-2.23375e-06
2.47529e-07
-2.30072e-06
1.56667e-07
-2.3428e-06
4.21675e-08
-2.35375e-06
-9.97321e-08
-2.32214e-06
-2.63472e-07
-2.23996e-06
-4.41955e-07
-2.10099e-06
-6.24503e-07
-1.90189e-06
-7.93748e-07
-1.64306e-06
-9.33676e-07
-1.33354e-06
-1.0209e-06
-9.93646e-07
-1.029e-06
-6.54925e-07
-9.42361e-07
-3.58989e-07
-7.58286e-07
-1.45867e-07
-5.04083e-07
-3.09304e-08
-2.42248e-07
1.10828e-08
-4.03032e-08
1.53745e-08
9.01119e-08
1.3482e-07
-4.4336e-08
9.94115e-08
-1.09394e-07
1.93324e-07
-1.79448e-07
2.47847e-07
-2.53327e-07
2.85861e-07
-3.31755e-07
3.14901e-07
-4.15335e-07
3.38826e-07
-5.04463e-07
3.60499e-07
-5.99451e-07
3.82005e-07
-7.00544e-07
4.04737e-07
-8.0784e-07
4.294e-07
-9.21152e-07
4.55967e-07
-1.03988e-06
4.83623e-07
-1.16296e-06
5.10794e-07
-1.28899e-06
5.35353e-07
-1.41644e-06
5.54999e-07
-1.54407e-06
5.67759e-07
-1.67128e-06
5.72391e-07
-1.79838e-06
5.68456e-07
-1.92653e-06
5.55937e-07
-2.05729e-06
5.34356e-07
-2.19156e-06
5.01602e-07
-2.32815e-06
4.53073e-07
-2.46251e-06
3.81893e-07
-2.58637e-06
2.80526e-07
-2.68755e-06
1.43347e-07
-2.75654e-06
-3.07392e-08
-2.78118e-06
-2.38839e-07
-2.75176e-06
-4.71371e-07
-2.6582e-06
-7.18066e-07
-2.49214e-06
-9.59806e-07
-2.25034e-06
-1.17547e-06
-1.9332e-06
-1.33804e-06
-1.54547e-06
-1.41674e-06
-1.11162e-06
-1.3762e-06
-6.8106e-07
-1.18885e-06
-3.24421e-07
-8.60722e-07
-1.07477e-07
-4.59191e-07
-2.24258e-08
-1.25355e-07
2.31367e-09
6.53725e-08
1.37134e-07
-5.03608e-08
1.49772e-07
-1.20414e-07
2.63377e-07
-1.93987e-07
3.2142e-07
-2.70146e-07
3.6202e-07
-3.4988e-07
3.94635e-07
-4.34115e-07
4.23061e-07
-5.23505e-07
4.49888e-07
-6.18488e-07
4.76989e-07
-7.19318e-07
5.05567e-07
-8.26024e-07
5.36106e-07
-9.3835e-07
5.68294e-07
-1.05574e-06
6.0101e-07
-1.1774e-06
6.32454e-07
-1.30252e-06
6.60472e-07
-1.43057e-06
6.83053e-07
-1.56168e-06
6.98871e-07
-1.69692e-06
7.07629e-07
-1.83843e-06
7.09961e-07
-1.98913e-06
7.06638e-07
-2.15176e-06
6.96988e-07
-2.32705e-06
6.76897e-07
-2.51158e-06
6.37596e-07
-2.69648e-06
5.66798e-07
-2.86856e-06
4.52603e-07
-3.01381e-06
2.88604e-07
-3.12008e-06
7.55261e-08
-3.18015e-06
-1.78769e-07
-3.18877e-06
-4.62746e-07
-3.14297e-06
-7.6387e-07
-3.03571e-06
-1.06707e-06
-2.8531e-06
-1.35808e-06
-2.58131e-06
-1.60983e-06
-2.20942e-06
-1.78863e-06
-1.73911e-06
-1.84651e-06
-1.20126e-06
-1.7267e-06
-6.65297e-07
-1.39669e-06
-2.59082e-07
-8.65406e-07
-7.54936e-08
-3.08943e-07
-1.37943e-08
3.67325e-09
1.2334e-07
-5.34876e-08
2.0326e-07
-1.2593e-07
3.3582e-07
-2.01176e-07
3.96666e-07
-2.78219e-07
4.39063e-07
-3.58039e-07
4.74456e-07
-4.41675e-07
5.06696e-07
-5.29907e-07
5.38121e-07
-6.23264e-07
5.70345e-07
-7.22034e-07
6.04337e-07
-8.26273e-07
6.40346e-07
-9.35818e-07
6.77839e-07
-1.05035e-06
7.15545e-07
-1.16957e-06
7.51676e-07
-1.29345e-06
7.84351e-07
-1.42255e-06
8.12153e-07
-1.55834e-06
8.34656e-07
-1.70336e-06
8.52652e-07
-1.86115e-06
8.6775e-07
-2.03544e-06
8.80927e-07
-2.22836e-06
8.8991e-07
-2.43773e-06
8.86266e-07
-2.65472e-06
8.54581e-07
-2.86388e-06
7.75959e-07
-3.04766e-06
6.36383e-07
-3.19221e-06
4.33155e-07
-3.29068e-06
1.73993e-07
-3.34224e-06
-1.27206e-07
-3.35405e-06
-4.50934e-07
-3.32952e-06
-7.88399e-07
-3.26677e-06
-1.12982e-06
-3.15955e-06
-1.46531e-06
-2.99084e-06
-1.77853e-06
-2.73288e-06
-2.0466e-06
-2.34871e-06
-2.23067e-06
-1.81996e-06
-2.25545e-06
-1.18213e-06
-2.03451e-06
-5.47476e-07
-1.50006e-06
-1.55853e-07
-7.00566e-07
-2.87854e-08
-1.23394e-07
9.45545e-08
-5.4392e-08
2.57652e-07
-1.27185e-07
4.08613e-07
-2.02505e-07
4.71986e-07
-2.79136e-07
5.15693e-07
-3.57912e-07
5.53232e-07
-4.39846e-07
5.8863e-07
-5.25758e-07
6.24033e-07
-6.16223e-07
6.60811e-07
-7.11587e-07
6.99701e-07
-8.11998e-07
7.40757e-07
-9.17479e-07
7.83319e-07
-1.02806e-06
8.26124e-07
-1.14399e-06
8.67607e-07
-1.26602e-06
9.06381e-07
-1.39568e-06
9.4181e-07
-1.53548e-06
9.74459e-07
-1.68893e-06
1.0061e-06
-1.86001e-06
1.03883e-06
-2.05173e-06
1.07265e-06
-2.2636e-06
1.10178e-06
-2.48887e-06
1.11154e-06
-2.71299e-06
1.0787e-06
-2.91703e-06
9.80004e-07
-3.08504e-06
8.04388e-07
-3.20969e-06
5.57814e-07
-3.29314e-06
2.57436e-07
-3.33994e-06
-8.04091e-08
-3.35466e-06
-4.36205e-07
-3.33977e-06
-8.03288e-07
-3.29618e-06
-1.17341e-06
-3.22326e-06
-1.53823e-06
-3.11266e-06
-1.88913e-06
-2.94816e-06
-2.2111e-06
-2.70133e-06
-2.47751e-06
-2.31337e-06
-2.64341e-06
-1.7389e-06
-2.60899e-06
-9.99706e-07
-2.23926e-06
-3.15292e-07
-1.38498e-06
-4.0352e-08
-3.98334e-07
5.42024e-08
-5.36192e-08
3.11271e-07
-1.25088e-07
4.80082e-07
-1.99095e-07
5.45994e-07
-2.74135e-07
5.90732e-07
-3.50818e-07
6.29915e-07
-4.30052e-07
6.67865e-07
-5.12631e-07
7.06611e-07
-5.99147e-07
7.47327e-07
-6.90005e-07
7.90559e-07
-7.8547e-07
8.36222e-07
-8.85783e-07
8.83632e-07
-9.91327e-07
9.31668e-07
-1.10285e-06
9.79132e-07
-1.22173e-06
1.02526e-06
-1.35015e-06
1.07023e-06
-1.4912e-06
1.11551e-06
-1.64858e-06
1.16348e-06
-1.82563e-06
1.21588e-06
-2.02344e-06
1.27047e-06
-2.23847e-06
1.3168e-06
-2.45972e-06
1.33279e-06
-2.66921e-06
1.28819e-06
-2.84919e-06
1.15999e-06
-2.98931e-06
9.44506e-07
-3.08868e-06
6.57181e-07
-3.15188e-06
3.20638e-07
-3.1855e-06
-4.67903e-08
-3.19641e-06
-4.25296e-07
-3.18741e-06
-8.12284e-07
-3.16112e-06
-1.1997e-06
-3.11633e-06
-1.58302e-06
-3.04764e-06
-1.95782e-06
-2.94303e-06
-2.31571e-06
-2.78148e-06
-2.63906e-06
-2.52999e-06
-2.89489e-06
-2.12297e-06
-3.01601e-06
-1.49438e-06
-2.86785e-06
-6.4744e-07
-2.23192e-06
-8.33047e-08
-9.62469e-07
-2.91023e-08
-5.15022e-08
3.62773e-07
-1.20298e-07
5.48877e-07
-1.91825e-07
6.17521e-07
-2.64222e-07
6.6313e-07
-3.37855e-07
7.03548e-07
-4.13481e-07
7.43491e-07
-4.91825e-07
7.84955e-07
-5.7347e-07
8.28972e-07
-6.5886e-07
8.75949e-07
-7.48372e-07
9.25735e-07
-8.42441e-07
9.777e-07
-9.4173e-07
1.03096e-06
-1.04734e-06
1.08475e-06
-1.16102e-06
1.13893e-06
-1.28523e-06
1.19444e-06
-1.42306e-06
1.25334e-06
-1.57767e-06
1.31809e-06
-1.75103e-06
1.38924e-06
-1.94226e-06
1.4617e-06
-2.14531e-06
1.51985e-06
-2.34614e-06
1.53361e-06
-2.52708e-06
1.46914e-06
-2.67424e-06
1.30715e-06
-2.78259e-06
1.05286e-06
-2.8549e-06
7.29488e-07
-2.89792e-06
3.63659e-07
-2.91829e-06
-2.64225e-08
-2.92069e-06
-4.22895e-07
-2.91062e-06
-8.22359e-07
-2.89155e-06
-1.21876e-06
-2.86426e-06
-1.61031e-06
-2.82581e-06
-1.99627e-06
-2.76764e-06
-2.37387e-06
-2.67257e-06
-2.73413e-06
-2.51369e-06
-3.05377e-06
-2.24827e-06
-3.28142e-06
-1.8019e-06
-3.31422e-06
-1.07226e-06
-2.96155e-06
-2.24243e-07
-1.81049e-06
-2.53345e-07
-4.82377e-08
4.11011e-07
-1.13382e-07
6.14021e-07
-1.81426e-07
6.85565e-07
-2.50251e-07
7.31955e-07
-3.19973e-07
7.73269e-07
-3.91177e-07
8.14695e-07
-4.64484e-07
8.58263e-07
-5.40438e-07
9.04925e-07
-6.19497e-07
9.55008e-07
-7.02112e-07
1.00835e-06
-7.88844e-07
1.06443e-06
-8.80524e-07
1.12264e-06
-9.78418e-07
1.18264e-06
-1.08434e-06
1.24486e-06
-1.20064e-06
1.31074e-06
-1.32993e-06
1.38263e-06
-1.47435e-06
1.46251e-06
-1.63451e-06
1.5494e-06
-1.80823e-06
1.63542e-06
-1.98749e-06
1.69911e-06
-2.15811e-06
1.70423e-06
-2.30571e-06
1.61673e-06
-2.42102e-06
1.42246e-06
-2.50269e-06
1.13453e-06
-2.55503e-06
7.8183e-07
-2.58405e-06
3.92679e-07
-2.59593e-06
-1.45476e-08
-2.59437e-06
-4.24453e-07
-2.58468e-06
-8.32052e-07
-2.57055e-06
-1.2329e-06
-2.55383e-06
-1.62703e-06
-2.53338e-06
-2.01672e-06
-2.50321e-06
-2.40404e-06
-2.45063e-06
-2.78671e-06
-2.35364e-06
-3.15076e-06
-2.17714e-06
-3.45793e-06
-1.8746e-06
-3.61676e-06
-1.36765e-06
-3.4685e-06
-4.87212e-07
-2.69093e-06
-7.40557e-07
-4.40982e-08
4.55109e-07
-1.04777e-07
6.747e-07
-1.68504e-07
7.49292e-07
-2.32961e-07
7.96412e-07
-2.98023e-07
8.38331e-07
-3.64091e-07
8.80763e-07
-4.31662e-07
9.25834e-07
-5.01209e-07
9.74471e-07
-5.73169e-07
1.02697e-06
-6.48011e-07
1.08319e-06
-7.2634e-07
1.14276e-06
-8.09019e-07
1.20532e-06
-8.9728e-07
1.2709e-06
-9.92752e-07
1.34033e-06
-1.09735e-06
1.41534e-06
-1.2129e-06
1.49818e-06
-1.34046e-06
1.59007e-06
-1.47973e-06
1.68867e-06
-1.62773e-06
1.78342e-06
-1.77585e-06
1.84722e-06
-1.9128e-06
1.84118e-06
-2.02834e-06
1.73227e-06
-2.11715e-06
1.51128e-06
-2.17959e-06
1.19696e-06
-2.21953e-06
8.21769e-07
-2.2413e-06
4.14457e-07
-2.24974e-06
-6.10674e-09
-2.24753e-06
-4.26665e-07
-2.23936e-06
-8.40222e-07
-2.2289e-06
-1.24335e-06
-2.21883e-06
-1.6371e-06
-2.20951e-06
-2.02604e-06
-2.19728e-06
-2.41627e-06
-2.17237e-06
-2.81162e-06
-2.11654e-06
-3.2066e-06
-2.00035e-06
-3.57411e-06
-1.77897e-06
-3.83814e-06
-1.39719e-06
-3.85028e-06
-7.32476e-07
-3.35565e-06
-1.47303e-06
-3.93175e-08
4.94427e-07
-9.48618e-08
7.30244e-07
-1.5359e-07
8.08021e-07
-2.13015e-07
8.55837e-07
-2.72789e-07
8.98105e-07
-3.33121e-07
9.41096e-07
-3.94369e-07
9.87082e-07
-4.56906e-07
1.03701e-06
-5.21113e-07
1.09117e-06
-5.87417e-07
1.1495e-06
-6.56381e-07
1.21172e-06
-7.28776e-07
1.27771e-06
-8.05637e-07
1.34776e-06
-8.88214e-07
1.42291e-06
-9.77797e-07
1.50492e-06
-1.07534e-06
1.59572e-06
-1.18098e-06
1.69571e-06
-1.29395e-06
1.80163e-06
-1.41105e-06
1.90053e-06
-1.52478e-06
1.96095e-06
-1.62826e-06
1.94466e-06
-1.71529e-06
1.81931e-06
-1.78331e-06
1.57929e-06
-1.83289e-06
1.24654e-06
-1.8663e-06
8.55184e-07
-1.88593e-06
4.34087e-07
-1.89444e-06
2.40002e-09
-1.89433e-06
-4.26779e-07
-1.88909e-06
-8.45456e-07
-1.88237e-06
-1.25008e-06
-1.87733e-06
-1.64214e-06
-1.87544e-06
-2.02793e-06
-1.8748e-06
-2.41691e-06
-1.86815e-06
-2.81826e-06
-1.83989e-06
-3.23485e-06
-1.76284e-06
-3.65117e-06
-1.58934e-06
-4.01165e-06
-1.29185e-06
-4.14777e-06
-8.07449e-07
-3.84005e-06
-2.28048e-06
-3.40874e-08
5.28514e-07
-8.39753e-08
7.80132e-07
-1.37164e-07
8.61209e-07
-1.91028e-07
9.09701e-07
-2.45009e-07
9.52085e-07
-2.99128e-07
9.95215e-07
-3.53589e-07
1.04154e-06
-4.08648e-07
1.09207e-06
-4.64589e-07
1.14712e-06
-5.21752e-07
1.20666e-06
-5.8058e-07
1.27055e-06
-6.41662e-07
1.33879e-06
-7.05721e-07
1.41182e-06
-7.73528e-07
1.49071e-06
-8.45692e-07
1.57709e-06
-9.22331e-07
1.67236e-06
-1.00288e-06
1.77626e-06
-1.08627e-06
1.88502e-06
-1.17067e-06
1.98493e-06
-1.24895e-06
2.03922e-06
-1.32035e-06
2.01607e-06
-1.38216e-06
1.88111e-06
-1.43353e-06
1.63066e-06
-1.47441e-06
1.28742e-06
-1.50504e-06
8.85816e-07
-1.52577e-06
4.54821e-07
-1.53754e-06
1.41661e-08
-1.54197e-06
-4.22348e-07
-1.54181e-06
-8.4562e-07
-1.54051e-06
-1.25138e-06
-1.54149e-06
-1.64116e-06
-1.54684e-06
-2.02258e-06
-1.55574e-06
-2.40801e-06
-1.56264e-06
-2.81136e-06
-1.55445e-06
-3.24304e-06
-1.50685e-06
-3.69876e-06
-1.37914e-06
-4.13936e-06
-1.13489e-06
-4.39201e-06
-7.02899e-07
-4.27204e-06
-2.98338e-06
-2.85764e-08
5.57091e-07
-7.24272e-08
8.23983e-07
-1.19673e-07
9.08455e-07
-1.6758e-07
9.57609e-07
-2.15394e-07
9.99899e-07
-2.62951e-07
1.04277e-06
-3.10298e-07
1.08889e-06
-3.57557e-07
1.13933e-06
-4.04892e-07
1.19445e-06
-4.52515e-07
1.25428e-06
-5.00708e-07
1.31874e-06
-5.49819e-07
1.38791e-06
-6.00219e-07
1.46222e-06
-6.52166e-07
1.54266e-06
-7.0562e-07
1.63054e-06
-7.6005e-07
1.72679e-06
-8.14509e-07
1.83072e-06
-8.6771e-07
1.93822e-06
-9.18044e-07
2.03527e-06
-9.61087e-07
2.08227e-06
-1.00213e-06
2.05712e-06
-1.04078e-06
1.91976e-06
-1.07751e-06
1.6674e-06
-1.11162e-06
1.32152e-06
-1.14136e-06
9.15555e-07
-1.16517e-06
4.7863e-07
-1.18242e-06
3.14215e-08
-1.19371e-06
-4.11059e-07
-1.20107e-06
-8.38264e-07
-1.20766e-06
-1.24479e-06
-1.2169e-06
-1.63192e-06
-1.23114e-06
-2.00834e-06
-1.25014e-06
-2.38901e-06
-1.26943e-06
-2.79207e-06
-1.27843e-06
-3.23405e-06
-1.25647e-06
-3.72072e-06
-1.17027e-06
-4.22557e-06
-9.62474e-07
-4.5998e-06
-6.06872e-07
-4.62764e-06
-3.59025e-06
-2.29393e-08
5.8003e-07
-6.05084e-08
8.61552e-07
-1.01542e-07
9.49489e-07
-1.4323e-07
9.99296e-07
-1.84636e-07
1.04131e-06
-2.25422e-07
1.08356e-06
-2.65478e-07
1.12895e-06
-3.04786e-07
1.17863e-06
-3.43374e-07
1.23304e-06
-3.81305e-07
1.29221e-06
-4.18672e-07
1.35611e-06
-4.55567e-07
1.4248e-06
-4.92004e-07
1.49866e-06
-5.27785e-07
1.57844e-06
-5.62338e-07
1.66509e-06
-5.9463e-07
1.75908e-06
-6.23308e-07
1.85939e-06
-6.46775e-07
1.96169e-06
-6.63696e-07
2.05219e-06
-6.74752e-07
2.09332e-06
-6.85729e-07
2.06809e-06
-7.01342e-07
1.93537e-06
-7.23281e-07
1.68934e-06
-7.50443e-07
1.34869e-06
-7.79497e-07
9.4461e-07
-8.07153e-07
5.06285e-07
-8.31329e-07
5.55982e-08
-8.51507e-07
-3.90881e-07
-8.68939e-07
-8.20833e-07
-8.86335e-07
-1.22739e-06
-9.06872e-07
-1.61138e-06
-9.32823e-07
-1.98239e-06
-9.6416e-07
-2.35768e-06
-9.96998e-07
-2.75923e-06
-1.0221e-06
-3.20894e-06
-1.0216e-06
-3.72123e-06
-9.68021e-07
-4.27914e-06
-8.00271e-07
-4.76755e-06
-5.05442e-07
-4.92247e-06
-4.09569e-06
-1.73227e-08
5.97353e-07
-4.84985e-08
8.92728e-07
-8.31735e-08
9.84164e-07
-1.18496e-07
1.03462e-06
-1.53373e-07
1.07618e-06
-1.87307e-07
1.11749e-06
-2.20034e-07
1.16167e-06
-2.51396e-07
1.21e-06
-2.81279e-07
1.26292e-06
-3.09594e-07
1.32053e-06
-3.36246e-07
1.38276e-06
-3.61082e-07
1.44964e-06
-3.83807e-07
1.52138e-06
-4.03851e-07
1.59849e-06
-4.2024e-07
1.68148e-06
-4.31563e-07
1.7704e-06
-4.36052e-07
1.86388e-06
-4.31832e-07
1.95747e-06
-4.1816e-07
2.03852e-06
-4.0044e-07
2.0756e-06
-3.82473e-07
2.05013e-06
-3.73962e-07
1.92686e-06
-3.7916e-07
1.69453e-06
-3.97363e-07
1.36689e-06
-4.24349e-07
9.71595e-07
-4.55413e-07
5.3735e-07
-4.87116e-07
8.73007e-08
-5.17756e-07
-3.60241e-07
-5.47629e-07
-7.90959e-07
-5.78738e-07
-1.19628e-06
-6.13721e-07
-1.5764e-06
-6.54489e-07
-1.94162e-06
-7.00974e-07
-2.31119e-06
-7.49736e-07
-2.71047e-06
-7.92474e-07
-3.1662e-06
-8.14058e-07
-3.69965e-06
-7.9076e-07
-4.30244e-06
-6.61585e-07
-4.89673e-06
-4.16126e-07
-5.16793e-06
-4.51182e-06
-1.18432e-08
6.09196e-07
-3.66257e-08
9.1751e-07
-6.49129e-08
1.01245e-06
-9.38435e-08
1.06355e-06
-1.22192e-07
1.10453e-06
-1.49309e-07
1.14461e-06
-1.74791e-07
1.18716e-06
-1.98346e-07
1.23355e-06
-2.19729e-07
1.28431e-06
-2.38707e-07
1.33951e-06
-2.55017e-07
1.39907e-06
-2.68308e-07
1.46293e-06
-2.78044e-07
1.53112e-06
-2.83394e-07
1.60384e-06
-2.83124e-07
1.68121e-06
-2.75576e-07
1.76285e-06
-2.58761e-07
1.84707e-06
-2.30726e-07
1.92944e-06
-1.90958e-07
1.99875e-06
-1.46481e-07
2.03112e-06
-1.02001e-07
2.00565e-06
-6.91497e-08
1.89401e-06
-5.51575e-08
1.68054e-06
-6.09882e-08
1.37272e-06
-8.29758e-08
9.93583e-07
-1.15733e-07
5.70107e-07
-1.54568e-07
1.26135e-07
-1.96515e-07
-3.18294e-07
-2.40674e-07
-7.46799e-07
-2.87911e-07
-1.14905e-06
-3.39985e-07
-1.52432e-06
-3.98137e-07
-1.88347e-06
-4.6208e-07
-2.24725e-06
-5.28724e-07
-2.64382e-06
-5.90379e-07
-3.10455e-06
-6.33189e-07
-3.65684e-06
-6.33807e-07
-4.30182e-06
-5.49175e-07
-4.98136e-06
-3.48428e-07
-5.36868e-06
-4.86025e-06
-6.63625e-09
6.15832e-07
-2.51419e-08
9.36016e-07
-4.71229e-08
1.03443e-06
-6.97448e-08
1.08617e-06
-9.16658e-08
1.12645e-06
-1.12109e-07
1.16505e-06
-1.30548e-07
1.20559e-06
-1.4657e-07
1.24957e-06
-1.59813e-07
1.29755e-06
-1.69923e-07
1.34962e-06
-1.76505e-07
1.40565e-06
-1.79057e-07
1.46548e-06
-1.76887e-07
1.52895e-06
-1.69005e-07
1.59596e-06
-1.54048e-07
1.66626e-06
-1.30274e-07
1.73908e-06
-9.56556e-08
1.81245e-06
-4.8311e-08
1.88209e-06
1.18846e-08
1.93855e-06
7.92197e-08
1.96379e-06
1.4706e-07
1.93781e-06
2.03697e-07
1.83738e-06
2.38815e-07
1.64542e-06
2.48476e-07
1.36306e-06
2.34836e-07
1.00722e-06
2.03103e-07
6.0184e-07
1.58693e-07
1.70545e-07
1.05759e-07
-2.65361e-07
4.66609e-08
-6.87701e-07
-1.81882e-08
-1.0842e-06
-8.89876e-08
-1.45352e-06
-1.66039e-07
-1.80642e-06
-2.48755e-07
-2.16453e-06
-3.34252e-07
-2.55833e-06
-4.15364e-07
-3.02343e-06
-4.79146e-07
-3.59305e-06
-5.02973e-07
-4.278e-06
-4.53964e-07
-5.03037e-06
-2.93402e-07
-5.52924e-06
-5.15365e-06
-1.84778e-09
6.1768e-07
-1.42706e-08
9.48439e-07
-3.01503e-08
1.05031e-06
-4.66543e-08
1.10267e-06
-6.23551e-08
1.14215e-06
-7.6373e-08
1.17907e-06
-8.80759e-08
1.2173e-06
-9.69524e-08
1.25845e-06
-1.02547e-07
1.30314e-06
-1.0441e-07
1.35148e-06
-1.02054e-07
1.4033e-06
-9.48837e-08
1.45831e-06
-8.21254e-08
1.51619e-06
-6.27254e-08
1.57656e-06
-3.53148e-08
1.63885e-06
1.80402e-09
1.70196e-06
5.04913e-08
1.76376e-06
1.12407e-07
1.82017e-06
1.87585e-07
1.86337e-06
2.71816e-07
1.87956e-06
3.5806e-07
1.85156e-06
4.35155e-07
1.76028e-06
4.90868e-07
1.58971e-06
5.18196e-07
1.33573e-06
5.16496e-07
1.00892e-06
4.89395e-07
6.28942e-07
4.42197e-07
2.17743e-07
3.79934e-07
-2.03098e-07
3.06581e-07
-6.14348e-07
2.24628e-07
-1.00224e-06
1.35284e-07
-1.36418e-06
3.92456e-08
-1.71038e-06
-6.23687e-08
-2.06292e-06
-1.66724e-07
-2.45397e-06
-2.6722e-07
-2.92294e-06
-3.51555e-07
-3.50872e-06
-3.9889e-07
-4.23066e-06
-3.79172e-07
-5.05009e-06
-2.52141e-07
-5.65627e-06
-5.40579e-06
2.51729e-09
6.15163e-07
-4.23723e-09
9.55193e-07
-1.43001e-08
1.06037e-06
-2.49606e-08
1.11334e-06
-3.47333e-08
1.15193e-06
-4.26598e-08
1.187e-06
-4.80228e-08
1.22266e-06
-5.02322e-08
1.26066e-06
-4.87613e-08
1.30167e-06
-4.30977e-08
1.34582e-06
-3.26964e-08
1.3929e-06
-1.6923e-08
1.44254e-06
5.01901e-09
1.49425e-06
3.41251e-08
1.54745e-06
7.16925e-08
1.60128e-06
1.19235e-07
1.65442e-06
1.78373e-07
1.70463e-06
2.50456e-07
1.74809e-06
3.35498e-07
1.77833e-06
4.30323e-07
1.78473e-06
5.28592e-07
1.75329e-06
6.20324e-07
1.66855e-06
6.9331e-07
1.51672e-06
7.37838e-07
1.2912e-06
7.49979e-07
9.96782e-07
7.30896e-07
6.48025e-07
6.84645e-07
2.63994e-07
6.16505e-07
-1.34958e-07
5.31895e-07
-5.29738e-07
4.35025e-07
-9.05375e-07
3.28908e-07
-1.25806e-06
2.15497e-07
-1.59697e-06
9.64636e-08
-1.94388e-06
-2.54522e-08
-2.33205e-06
-1.44012e-07
-2.80438e-06
-2.47249e-07
-3.40548e-06
-3.15534e-07
-4.16238e-06
-3.20994e-07
-5.04463e-06
-2.20141e-07
-5.75713e-06
-5.62593e-06
6.10617e-09
6.09056e-07
4.71648e-09
9.56583e-07
1.22065e-10
1.06497e-06
-5.01731e-09
1.11847e-06
-9.22052e-09
1.15613e-06
-1.14513e-08
1.18923e-06
-1.09251e-08
1.22213e-06
-6.99454e-09
1.25673e-06
9.14757e-10
1.29376e-06
1.33456e-08
1.33339e-06
3.08586e-08
1.37538e-06
5.40853e-08
1.41931e-06
8.37727e-08
1.46456e-06
1.20849e-07
1.51037e-06
1.66419e-07
1.55571e-06
2.21751e-07
1.59909e-06
2.88133e-07
1.63824e-06
3.66548e-07
1.66968e-06
4.56934e-07
1.68795e-06
5.56824e-07
1.68484e-06
6.60817e-07
1.6493e-06
7.60391e-07
1.56898e-06
8.44591e-07
1.43252e-06
9.02739e-07
1.23305e-06
9.28072e-07
9.71449e-07
9.18826e-07
6.57271e-07
8.77069e-07
3.05751e-07
8.07355e-07
-6.52444e-08
7.15835e-07
-4.38218e-07
6.08177e-07
-7.97717e-07
4.89043e-07
-1.13893e-06
3.61537e-07
-1.46946e-06
2.27778e-07
-1.81013e-06
9.0514e-08
-2.19479e-06
-4.42727e-08
-2.66959e-06
-1.64714e-07
-3.28504e-06
-2.51675e-07
-4.07541e-06
-2.78942e-07
-5.01736e-06
-1.98416e-07
-5.83765e-06
-5.82435e-06
9.37225e-09
5.99684e-07
1.26415e-08
9.53314e-07
1.29975e-08
1.06461e-06
1.28882e-08
1.11858e-06
1.38143e-08
1.1552e-06
1.68294e-08
1.18621e-06
2.27537e-08
1.21621e-06
3.22675e-08
1.24721e-06
4.59655e-08
1.28006e-06
6.43993e-08
1.31495e-06
8.81164e-08
1.35167e-06
1.177e-07
1.38973e-06
1.53815e-07
1.42845e-06
1.97243e-07
1.46695e-06
2.48885e-07
1.50407e-06
3.09719e-07
1.53825e-06
3.80675e-07
1.56729e-06
4.62355e-07
1.588e-06
5.54521e-07
1.59578e-06
6.55176e-07
1.58419e-06
7.5975e-07
1.54473e-06
8.61113e-07
1.46761e-06
9.49859e-07
1.34378e-06
1.0159e-06
1.16702e-06
1.05111e-06
9.36236e-07
1.05127e-06
6.57105e-07
1.01615e-06
3.4088e-07
9.49092e-07
1.80903e-09
8.55622e-07
-3.44747e-07
7.42386e-07
-6.84482e-07
6.15049e-07
-1.01159e-06
4.776e-07
-1.33201e-06
3.32695e-07
-1.66522e-06
1.83164e-07
-2.04526e-06
3.47529e-08
-2.52118e-06
-1.00463e-07
-3.14982e-06
-2.03029e-07
-3.97285e-06
-2.48038e-07
-4.97235e-06
-1.831e-07
-5.90259e-06
-6.00745e-06
1.19223e-08
5.87762e-07
1.92373e-08
9.45999e-07
2.40096e-08
1.05984e-06
2.84549e-08
1.11414e-06
3.40349e-08
1.14962e-06
4.18141e-08
1.17843e-06
5.2629e-08
1.2054e-06
6.717e-08
1.23267e-06
8.60295e-08
1.26121e-06
1.09739e-07
1.29124e-06
1.38804e-07
1.3226e-06
1.73736e-07
1.35479e-06
2.15087e-07
1.3871e-06
2.63471e-07
1.41856e-06
3.1956e-07
1.44798e-06
3.84036e-07
1.47377e-06
4.57479e-07
1.49385e-06
5.40139e-07
1.50534e-06
6.31552e-07
1.50437e-06
7.29947e-07
1.48579e-06
8.31509e-07
1.44316e-06
9.30247e-07
1.36887e-06
1.01825e-06
1.25578e-06
1.08663e-06
1.09864e-06
1.12723e-06
8.95634e-07
1.13454e-06
6.49796e-07
1.10651e-06
3.6891e-07
1.04473e-06
6.35813e-08
9.53685e-07
-2.53697e-07
8.39757e-07
-5.70554e-07
7.08978e-07
-8.80814e-07
5.65958e-07
-1.18899e-06
4.13782e-07
-1.51305e-06
2.55278e-07
-1.88676e-06
9.59415e-08
-2.36184e-06
-5.20041e-08
-3.00188e-06
-1.6833e-07
-3.85652e-06
-2.27958e-07
-4.91272e-06
-1.76429e-07
-5.95412e-06
-6.18388e-06
1.37117e-08
5.7405e-07
2.43834e-08
9.35327e-07
3.2963e-08
1.05126e-06
4.1414e-08
1.10569e-06
5.11359e-08
1.1399e-06
6.31808e-08
1.16639e-06
7.838e-08
1.1902e-06
9.74118e-08
1.21364e-06
1.20844e-07
1.23777e-06
1.49165e-07
1.26292e-06
1.82817e-07
1.28895e-06
2.22219e-07
1.31539e-06
2.67793e-07
1.34152e-06
3.19977e-07
1.36638e-06
3.79213e-07
1.38874e-06
4.45904e-07
1.40708e-06
5.20309e-07
1.41944e-06
6.02364e-07
1.42328e-06
6.91386e-07
1.41534e-06
7.85687e-07
1.39149e-06
8.8209e-07
1.34676e-06
9.75518e-07
1.27545e-06
1.05937e-06
1.17193e-06
1.12606e-06
1.03195e-06
1.16816e-06
8.53538e-07
1.17982e-06
6.38132e-07
1.1579e-06
3.90832e-07
1.10241e-06
1.19076e-07
1.01648e-06
-1.67774e-07
9.05547e-07
-4.59619e-07
7.75417e-07
-7.50684e-07
6.30833e-07
-1.04441e-06
4.74976e-07
-1.35719e-06
3.10615e-07
-1.72239e-06
1.43147e-07
-2.19438e-06
-1.50961e-08
-2.84364e-06
-1.43051e-07
-3.72857e-06
-2.13474e-07
-4.8423e-06
-1.74145e-07
-5.99345e-06
-6.35802e-06
1.47094e-08
5.59341e-07
2.79401e-08
9.22096e-07
3.96451e-08
1.03956e-06
5.15024e-08
1.09383e-06
6.48266e-08
1.12658e-06
8.06352e-08
1.15058e-06
9.97314e-08
1.1711e-06
1.22758e-07
1.19061e-06
1.50237e-07
1.21029e-06
1.82594e-07
1.23056e-06
2.20188e-07
1.25136e-06
2.63332e-07
1.27225e-06
3.12311e-07
1.29254e-06
3.67387e-07
1.3113e-06
4.28788e-07
1.32734e-06
4.96663e-07
1.33921e-06
5.70995e-07
1.34511e-06
6.51456e-07
1.34282e-06
7.37193e-07
1.32961e-06
8.26545e-07
1.30214e-06
9.16746e-07
1.25656e-06
1.00358e-06
1.18861e-06
1.08152e-06
1.09399e-06
1.14419e-06
9.69285e-07
1.18508e-06
8.12641e-07
1.19866e-06
6.24557e-07
1.18129e-06
4.08197e-07
1.13193e-06
1.6844e-07
1.05233e-06
-8.81708e-08
9.46682e-07
-3.53975e-07
8.20119e-07
-6.24121e-07
6.77078e-07
-9.01369e-07
5.20611e-07
-1.20072e-06
3.53261e-07
-1.55504e-06
1.80055e-07
-2.02117e-06
1.32206e-08
-2.6768e-06
-1.25159e-07
-3.59019e-06
-2.05258e-07
-4.7622e-06
-1.75745e-07
-6.02296e-06
-6.53377e-06
1.48538e-08
5.44487e-07
2.97508e-08
9.07199e-07
4.38224e-08
1.02548e-06
5.84402e-08
1.07921e-06
7.48111e-08
1.11021e-06
9.38926e-08
1.1315e-06
1.16435e-07
1.14856e-06
1.43021e-07
1.16403e-06
1.74102e-07
1.17921e-06
2.10023e-07
1.19464e-06
2.51044e-07
1.21033e-06
2.97364e-07
1.22593e-06
3.49128e-07
1.24078e-06
4.06433e-07
1.254e-06
4.6931e-07
1.26446e-06
5.37691e-07
1.27083e-06
6.1133e-07
1.27147e-06
6.89693e-07
1.26446e-06
7.718e-07
1.2475e-06
8.56019e-07
1.21792e-06
9.39864e-07
1.17272e-06
1.01982e-06
1.10865e-06
1.09127e-06
1.02254e-06
1.14888e-06
9.11668e-07
1.18711e-06
7.74416e-07
1.20092e-06
6.10739e-07
1.18671e-06
4.22412e-07
1.14274e-06
2.12409e-07
1.06967e-06
-1.50981e-08
9.70446e-07
-2.54754e-07
8.49247e-07
-5.02922e-07
7.09955e-07
-7.62077e-07
5.55285e-07
-1.04605e-06
3.87321e-07
-1.38708e-06
2.10348e-07
-1.8442e-06
3.62983e-08
-2.50275e-06
-1.11443e-07
-3.44245e-06
-1.99543e-07
-4.6741e-06
-1.79762e-07
-6.04274e-06
-6.71353e-06
1.40509e-08
5.30436e-07
2.96133e-08
8.91637e-07
4.52146e-08
1.00988e-06
6.19059e-08
1.06252e-06
8.07629e-08
1.09135e-06
1.02654e-07
1.10961e-06
1.28246e-07
1.12297e-06
1.58033e-07
1.13424e-06
1.92371e-07
1.14488e-06
2.31502e-07
1.15551e-06
2.75577e-07
1.16626e-06
3.24671e-07
1.17683e-06
3.78794e-07
1.18666e-06
4.3789e-07
1.1949e-06
5.01821e-07
1.20053e-06
5.70334e-07
1.20231e-06
6.43004e-07
1.1988e-06
7.19142e-07
1.18832e-06
7.97684e-07
1.16896e-06
8.77041e-07
1.13857e-06
9.54965e-07
1.09479e-06
1.02843e-06
1.03519e-06
1.09362e-06
9.57354e-07
1.14608e-06
8.59205e-07
1.18112e-06
7.39375e-07
1.19434e-06
5.97515e-07
1.18231e-06
4.34447e-07
1.14297e-06
2.51748e-07
1.07615e-06
5.17178e-08
9.83742e-07
-1.62342e-07
8.68902e-07
-3.88082e-07
7.34845e-07
-6.28021e-07
5.83796e-07
-8.95002e-07
4.17219e-07
-1.2205e-06
2.38396e-07
-1.66538e-06
5.84538e-08
-2.32281e-06
-9.86259e-08
-3.28537e-06
-1.94944e-07
-4.57778e-06
-1.85314e-07
-6.05237e-06
-6.89884e-06
1.21897e-08
5.18246e-07
2.72799e-08
8.76547e-07
4.34706e-08
9.93693e-07
6.15053e-08
1.04449e-06
8.22966e-08
1.07056e-06
1.06583e-07
1.08532e-06
1.34907e-07
1.09464e-06
1.67636e-07
1.10151e-06
2.05001e-07
1.10751e-06
2.47119e-07
1.11339e-06
2.94017e-07
1.11936e-06
3.45647e-07
1.1252e-06
4.01888e-07
1.13041e-06
4.62548e-07
1.13424e-06
5.27345e-07
1.13574e-06
5.95879e-07
1.13378e-06
6.67587e-07
1.12709e-06
7.41672e-07
1.11423e-06
8.17024e-07
1.09361e-06
8.92113e-07
1.06348e-06
9.64898e-07
1.02201e-06
1.03275e-06
9.6733e-07
1.09246e-06
8.97645e-07
1.1403e-06
8.11365e-07
1.17234e-06
7.07339e-07
1.18478e-06
5.85073e-07
1.17447e-06
4.4476e-07
1.13926e-06
2.8696e-07
1.07837e-06
1.126e-07
9.92794e-07
-7.67628e-08
8.84793e-07
-2.80081e-07
7.56902e-07
-5.0013e-07
6.10811e-07
-7.48911e-07
4.47278e-07
-1.05697e-06
2.6838e-07
-1.48648e-06
8.35927e-08
-2.13802e-06
-8.32305e-08
-3.11854e-06
-1.89829e-07
-4.47119e-06
-1.90982e-07
-6.05122e-06
-7.08983e-06
9.07549e-09
5.09171e-07
2.23405e-08
8.63282e-07
3.80854e-08
9.77948e-07
5.67148e-08
1.02586e-06
7.89302e-08
1.04834e-06
1.05284e-07
1.05897e-06
1.36134e-07
1.06379e-06
1.71673e-07
1.06597e-06
2.11969e-07
1.06721e-06
2.56993e-07
1.06837e-06
3.06635e-07
1.06972e-06
3.60724e-07
1.07112e-06
4.19019e-07
1.07212e-06
4.81208e-07
1.07205e-06
5.46893e-07
1.07005e-06
6.1556e-07
1.06511e-06
6.8655e-07
1.0561e-06
7.58999e-07
1.04178e-06
8.31781e-07
1.02082e-06
9.03435e-07
9.91822e-07
9.72107e-07
9.53336e-07
1.0355e-06
9.03936e-07
1.09088e-06
8.42265e-07
1.13512e-06
7.67127e-07
1.16489e-06
6.77568e-07
1.17694e-06
5.73023e-07
1.1684e-06
4.53301e-07
1.13714e-06
3.18221e-07
1.08196e-06
1.67779e-07
1.00314e-06
2.06056e-09
9.02156e-07
-1.791e-07
7.8093e-07
-3.78904e-07
6.40638e-07
-6.08618e-07
4.81295e-07
-8.97628e-07
3.0372e-07
-1.3089e-06
1.15469e-07
-1.94977e-06
-6.10953e-08
-2.94198e-06