/*--------------------------------*- C++ -*----------------------------------*\
  =========                 |
  \\      /  F ield         | OpenFOAM: The Open Source CFD Toolbox
   \\    /   O peration     | Website:  https://openfoam.org
    \\  /    A nd           | Version:  12
     \\/     M anipulation  |
\*---------------------------------------------------------------------------*/
FoamFile
{
    format      ascii;
    class       volVectorField;
    location    "1.5";
    object      U;
}
// * * * * * * * * * * * * * * * * * * * * * * * * * * * * * * * * * * * * * //

dimensions      [0 1 -1 0 0 0 0];

internalField   nonuniform List<vector> 
1600
(
(0.000166968 -0.000170235 0)
(0.000276285 -7.00618e-05 0)
(-0.00015878 8.69051e-05 0)
(-0.00102706 0.000198966 0)
(-0.00215286 0.000261578 0)
(-0.0034186 0.000288771 0)
(-0.00476399 0.000298988 0)
(-0.00616362 0.000302315 0)
(-0.0076137 0.000304853 0)
(-0.00912486 0.000311698 0)
(-0.0107195 0.000328341 0)
(-0.0124309 0.000361576 0)
(-0.0143035 0.000420161 0)
(-0.0163908 0.000515046 0)
(-0.0187529 0.000658485 0)
(-0.0214487 0.000860998 0)
(-0.0245229 0.00112534 0)
(-0.0279883 0.00143811 0)
(-0.0318034 0.00176272 0)
(-0.0358468 0.00203982 0)
(-0.0399042 0.00219719 0)
(-0.0437134 0.00216392 0)
(-0.0470328 0.00190343 0)
(-0.0494271 0.00146106 0)
(-0.0504982 0.000932867 0)
(-0.0505226 2.73469e-05 0)
(-0.0486173 -0.000882224 0)
(-0.0452017 -0.00179636 0)
(-0.0401789 -0.00270168 0)
(-0.0338163 -0.00339263 0)
(-0.0265136 -0.0037678 0)
(-0.0188323 -0.00381079 0)
(-0.0113704 -0.00344206 0)
(-0.00477206 -0.00268299 0)
(0.000350155 -0.00171208 0)
(0.00353448 -0.000745817 0)
(0.00480872 0.000131047 0)
(0.00444532 0.000704644 0)
(0.00296125 0.000935984 0)
(0.000815972 0.000821301 0)
(3.63232e-05 -0.000282809 0)
(-0.000517125 0.000449987 0)
(-0.00187512 0.00132966 0)
(-0.00380219 0.00195032 0)
(-0.00608633 0.00230518 0)
(-0.00859865 0.00250622 0)
(-0.0112738 0.00263711 0)
(-0.0140896 0.00274669 0)
(-0.01705 0.00286508 0)
(-0.0201754 0.00301415 0)
(-0.0234978 0.00321203 0)
(-0.0270537 0.00347432 0)
(-0.0308764 0.00381246 0)
(-0.0349854 0.00423003 0)
(-0.0393721 0.004717 0)
(-0.0439881 0.00524321 0)
(-0.048738 0.00575322 0)
(-0.0534845 0.0061662 0)
(-0.058063 0.0063864 0)
(-0.0623014 0.0063228 0)
(-0.0660347 0.00590232 0)
(-0.0691144 0.00507574 0)
(-0.0713885 0.00382864 0)
(-0.0726458 0.00220443 0)
(-0.0726791 0.000251566 0)
(-0.0713773 -0.00209698 0)
(-0.0684662 -0.00462632 0)
(-0.0638708 -0.00715167 0)
(-0.057605 -0.00951291 0)
(-0.0498664 -0.0113749 0)
(-0.0409075 -0.0124749 0)
(-0.0312753 -0.0126955 0)
(-0.0216481 -0.0118179 0)
(-0.0127835 -0.00985955 0)
(-0.00545293 -0.00711464 0)
(-0.000248165 -0.00405765 0)
(0.00264944 -0.00115663 0)
(0.00355782 0.00120669 0)
(0.0028953 0.00285722 0)
(0.000887962 0.00280833 0)
(-0.00019889 0.000257899 0)
(-0.0015867 0.0018804 0)
(-0.00360257 0.00335745 0)
(-0.00600127 0.00436285 0)
(-0.00871848 0.00499841 0)
(-0.0116734 0.00541646 0)
(-0.0148346 0.00573327 0)
(-0.0181936 0.00602387 0)
(-0.0217582 0.00633685 0)
(-0.0255465 0.00670489 0)
(-0.0295805 0.00714883 0)
(-0.0338765 0.0076768 0)
(-0.0384343 0.00828041 0)
(-0.0432259 0.00893031 0)
(-0.0481884 0.00957398 0)
(-0.0532223 0.0101384 0)
(-0.0582014 0.010539 0)
(-0.0629916 0.0106926 0)
(-0.067474 0.0105231 0)
(-0.0715528 0.00996224 0)
(-0.0751499 0.00895289 0)
(-0.0781906 0.00744808 0)
(-0.0805719 0.0054145 0)
(-0.0821333 0.00283728 0)
(-0.0827018 -0.000287547 0)
(-0.0820239 -0.00391205 0)
(-0.0798087 -0.00788059 0)
(-0.0758663 -0.0119736 0)
(-0.0700641 -0.0159 0)
(-0.0624757 -0.0191768 0)
(-0.0531467 -0.0214036 0)
(-0.0425079 -0.0221999 0)
(-0.0313255 -0.0211537 0)
(-0.0205034 -0.0182036 0)
(-0.0111007 -0.0136902 0)
(-0.00412831 -0.0084486 0)
(-2.20622e-05 -0.00346793 0)
(0.00167309 0.000649805 0)
(0.00180712 0.00365088 0)
(0.000660346 0.00427026 0)
(-0.00044968 0.00143636 0)
(-0.00247322 0.00392631 0)
(-0.00488847 0.00576798 0)
(-0.00754976 0.00703509 0)
(-0.010476 0.00791018 0)
(-0.0136225 0.00855188 0)
(-0.0169881 0.00908412 0)
(-0.0205781 0.00959301 0)
(-0.0244026 0.0101362 0)
(-0.0284743 0.0107494 0)
(-0.0328023 0.011448 0)
(-0.0373833 0.0122246 0)
(-0.0421931 0.0130455 0)
(-0.0471803 0.0138505 0)
(-0.0522675 0.0145579 0)
(-0.0573601 0.0150767 0)
(-0.0623638 0.0153219 0)
(-0.0672029 0.0152257 0)
(-0.0718288 0.0147397 0)
(-0.0762227 0.0138227 0)
(-0.0803817 0.0124241 0)
(-0.0842865 0.0104711 0)
(-0.0878558 0.00787128 0)
(-0.0909096 0.00452753 0)
(-0.0931568 0.000374516 0)
(-0.0942921 -0.00453454 0)
(-0.093932 -0.0101008 0)
(-0.0916938 -0.0160592 0)
(-0.0872721 -0.0220177 0)
(-0.0805151 -0.0273317 0)
(-0.0713704 -0.0314732 0)
(-0.0599201 -0.0336653 0)
(-0.046758 -0.0330915 0)
(-0.0329314 -0.0294542 0)
(-0.0198372 -0.0229701 0)
(-0.00925696 -0.0147623 0)
(-0.00265469 -0.00681197 0)
(0.000151783 -0.000540524 0)
(0.000873953 0.00376944 0)
(0.000424583 0.00513754 0)
(-0.00063859 0.00304798 0)
(-0.00308564 0.0063887 0)
(-0.00575871 0.00847518 0)
(-0.00859183 0.00992741 0)
(-0.0116426 0.0110052 0)
(-0.0148845 0.0118635 0)
(-0.0183367 0.0126214 0)
(-0.0220162 0.0133653 0)
(-0.0259356 0.0141536 0)
(-0.0301032 0.0150182 0)
(-0.0345187 0.0159639 0)
(-0.0391677 0.0169656 0)
(-0.0440173 0.0179673 0)
(-0.0490161 0.0188876 0)
(-0.0541024 0.0196327 0)
(-0.0592167 0.0201147 0)
(-0.0643186 0.0202685 0)
(-0.0694005 0.020058 0)
(-0.0744942 0.019466 0)
(-0.0796618 0.0184708 0)
(-0.0849663 0.0170116 0)
(-0.0904183 0.0149629 0)
(-0.0959114 0.0121333 0)
(-0.101175 0.00830278 0)
(-0.105783 0.00329245 0)
(-0.109273 -0.00295266 0)
(-0.111196 -0.0102588 0)
(-0.111194 -0.018394 0)
(-0.108787 -0.0269071 0)
(-0.103584 -0.034993 0)
(-0.095429 -0.0418324 0)
(-0.0843489 -0.0465222 0)
(-0.0701929 -0.0478891 0)
(-0.0535251 -0.0449174 0)
(-0.0357494 -0.0370601 0)
(-0.0192148 -0.0253393 0)
(-0.00718039 -0.0126975 0)
(-0.00161799 -0.00285942 0)
(3.0074e-05 0.0032575 0)
(0.000199457 0.00549173 0)
(-0.000760173 0.00496111 0)
(-0.00346171 0.0091105 0)
(-0.00628995 0.0113643 0)
(-0.00922936 0.0129427 0)
(-0.0123481 0.0141825 0)
(-0.0156265 0.015235 0)
(-0.0190953 0.016209 0)
(-0.0227795 0.0171843 0)
(-0.026694 0.0182134 0)
(-0.0308454 0.0193205 0)
(-0.0352299 0.0204982 0)
(-0.0398313 0.0217064 0)
(-0.0446215 0.0228753 0)
(-0.0495658 0.0239161 0)
(-0.0546337 0.0247396 0)
(-0.0598134 0.025277 0)
(-0.0651258 0.0254962 0)
(-0.0706354 0.0254016 0)
(-0.07645 0.0250121 0)
(-0.0826985 0.0243146 0)
(-0.0894739 0.0232034 0)
(-0.0967439 0.0214343 0)
(-0.104266 0.0186363 0)
(-0.111568 0.0144025 0)
(-0.118037 0.0084382 0)
(-0.123123 0.000689438 0)
(-0.126512 -0.00862807 0)
(-0.127894 -0.019199 0)
(-0.127117 -0.0304534 0)
(-0.124086 -0.0416483 0)
(-0.118509 -0.051997 0)
(-0.109471 -0.0601222 0)
(-0.0966746 -0.0646197 0)
(-0.0798071 -0.0639646 0)
(-0.0594659 -0.0569321 0)
(-0.0371479 -0.0428315 0)
(-0.0167124 -0.023903 0)
(-0.00469016 -0.00752175 0)
(-0.0010051 0.00175575 0)
(-3.6817e-05 0.00529627 0)
(-0.000825843 0.00704963 0)
(-0.00365446 0.0119746 0)
(-0.00655642 0.0143542 0)
(-0.00954329 0.0160186 0)
(-0.0126795 0.0173846 0)
(-0.0159463 0.0186037 0)
(-0.0193789 0.019774 0)
(-0.0230069 0.020965 0)
(-0.0268476 0.0222205 0)
(-0.0309082 0.0235547 0)
(-0.0351864 0.0249501 0)
(-0.0396718 0.0263571 0)
(-0.0443499 0.0277018 0)
(-0.049211 0.028901 0)
(-0.0542618 0.029884 0)
(-0.0595395 0.0306143 0)
(-0.0651231 0.031102 0)
(-0.0711379 0.0313949 0)
(-0.0777434 0.0315366 0)
(-0.0850846 0.0314853 0)
(-0.0931954 0.0310121 0)
(-0.101874 0.0296414 0)
(-0.11061 0.0267401 0)
(-0.118662 0.0217391 0)
(-0.125337 0.0144017 0)
(-0.130206 0.00489138 0)
(-0.133123 -0.0063359 0)
(-0.134286 -0.0186444 0)
(-0.133996 -0.0315936 0)
(-0.132264 -0.0447447 0)
(-0.128949 -0.057617 0)
(-0.123557 -0.0692969 0)
(-0.115303 -0.078575 0)
(-0.102894 -0.083263 0)
(-0.0845684 -0.0799868 0)
(-0.0612 -0.0674709 0)
(-0.0341144 -0.0443044 0)
(-0.0106448 -0.017023 0)
(-0.00211261 -0.00143808 0)
(-0.000154931 0.00453883 0)
(-0.000847806 0.00921496 0)
(-0.00370692 0.0148911 0)
(-0.00661515 0.0173772 0)
(-0.00959529 0.0191027 0)
(-0.0127017 0.0205663 0)
(-0.0159132 0.0219248 0)
(-0.0192648 0.023267 0)
(-0.0227881 0.0246523 0)
(-0.0265023 0.0261146 0)
(-0.0304171 0.0276594 0)
(-0.0345351 0.0292618 0)
(-0.0388557 0.0308696 0)
(-0.0433821 0.0324141 0)
(-0.0481308 0.0338283 0)
(-0.053144 0.0350701 0)
(-0.0584999 0.0361424 0)
(-0.0643203 0.0370987 0)
(-0.0707644 0.0380189 0)
(-0.0779959 0.0389352 0)
(-0.086105 0.0397031 0)
(-0.0949827 0.0398632 0)
(-0.1042 0.0386453 0)
(-0.113004 0.0351642 0)
(-0.120598 0.0288763 0)
(-0.126469 0.0198374 0)
(-0.130503 0.00859088 0)
(-0.133053 -0.00426837 0)
(-0.13419 -0.0179663 0)
(-0.134158 -0.0320571 0)
(-0.132971 -0.0462667 0)
(-0.130628 -0.060285 0)
(-0.127046 -0.0738219 0)
(-0.121688 -0.08608 0)
(-0.113661 -0.095719 0)
(-0.101695 -0.100139 0)
(-0.0828363 -0.0940498 0)
(-0.0566927 -0.074029 0)
(-0.0233296 -0.0372616 0)
(-0.00369717 -0.00830655 0)
(7.827e-05 0.00330735 0)
(-0.000837015 0.0113784 0)
(-0.00365149 0.0177884 0)
(-0.00650835 0.0203745 0)
(-0.00943292 0.0221459 0)
(-0.0124657 0.0236847 0)
(-0.0155815 0.025157 0)
(-0.0188124 0.0266458 0)
(-0.0221897 0.0282014 0)
(-0.0257341 0.029849 0)
(-0.0294583 0.0315872 0)
(-0.0333712 0.0333882 0)
(-0.0374835 0.0352033 0)
(-0.0418149 0.0369761 0)
(-0.0464048 0.0386628 0)
(-0.0513216 0.0402548 0)
(-0.0566702 0.0417939 0)
(-0.0625909 0.0433673 0)
(-0.0692399 0.045059 0)
(-0.0767371 0.0468355 0)
(-0.085078 0.0483689 0)
(-0.0940068 0.0489324 0)
(-0.102892 0.047438 0)
(-0.110893 0.0429179 0)
(-0.117359 0.0350577 0)
(-0.122073 0.0243042 0)
(-0.12524 0.0114767 0)
(-0.127022 -0.00259326 0)
(-0.12786 -0.0174876 0)
(-0.127832 -0.032731 0)
(-0.127103 -0.0480668 0)
(-0.125698 -0.0632228 0)
(-0.123489 -0.0778883 0)
(-0.120144 -0.0916095 0)
(-0.114968 -0.103537 0)
(-0.106882 -0.112386 0)
(-0.0944482 -0.114884 0)
(-0.0746165 -0.104081 0)
(-0.0442959 -0.0721824 0)
(-0.00902403 -0.0228083 0)
(0.000822799 0.00147364 0)
(-0.000804024 0.0134905 0)
(-0.00350739 0.0206005 0)
(-0.00626862 0.0232943 0)
(-0.00909427 0.0251036 0)
(-0.0120136 0.0266995 0)
(-0.0149968 0.0282625 0)
(-0.0180712 0.0298725 0)
(-0.0212662 0.0315732 0)
(-0.024603 0.0333829 0)
(-0.0280973 0.0352965 0)
(-0.0317639 0.0372867 0)
(-0.0356226 0.0393129 0)
(-0.0397064 0.0413355 0)
(-0.0440695 0.0433367 0)
(-0.0487942 0.0453401 0)
(-0.0539932 0.0474186 0)
(-0.0597991 0.0496736 0)
(-0.0663328 0.0521574 0)
(-0.0736478 0.05472 0)
(-0.0816667 0.0568395 0)
(-0.0899908 0.0574801 0)
(-0.0978917 0.0553158 0)
(-0.104606 0.04949 0)
(-0.109705 0.0400413 0)
(-0.113197 0.0277715 0)
(-0.115385 0.0136894 0)
(-0.116546 -0.00141521 0)
(-0.116922 -0.0170467 0)
(-0.116707 -0.0328247 0)
(-0.116095 -0.0485614 0)
(-0.115176 -0.0641542 0)
(-0.113909 -0.0795229 0)
(-0.112066 -0.0944551 0)
(-0.109154 -0.108424 0)
(-0.10424 -0.120227 0)
(-0.0958969 -0.127568 0)
(-0.0824104 -0.125903 0)
(-0.060654 -0.1059 0)
(-0.0228469 -0.0517079 0)
(0.00133837 -0.00443682 0)
(-0.000746806 0.0154911 0)
(-0.00329445 0.0232863 0)
(-0.00592233 0.0260938 0)
(-0.00861122 0.027936 0)
(-0.0113816 0.0295742 0)
(-0.0141989 0.0312065 0)
(-0.0170846 0.032913 0)
(-0.0200652 0.0347328 0)
(-0.0231611 0.0366802 0)
(-0.0263898 0.0387483 0)
(-0.02977 0.0409138 0)
(-0.0333277 0.0431463 0)
(-0.0371028 0.0454246 0)
(-0.0411551 0.0477551 0)
(-0.0455674 0.0501874 0)
(-0.0504422 0.0528123 0)
(-0.0558832 0.0557224 0)
(-0.0619584 0.0589086 0)
(-0.0686873 0.0621021 0)
(-0.0759088 0.0645762 0)
(-0.0831634 0.0649706 0)
(-0.089752 0.0619118 0)
(-0.0951029 0.0547353 0)
(-0.0989788 0.0438319 0)
(-0.101519 0.0302602 0)
(-0.103031 0.0151282 0)
(-0.103761 -0.000783614 0)
(-0.103894 -0.0169855 0)
(-0.103615 -0.0331476 0)
(-0.103109 -0.0491172 0)
(-0.102491 -0.0648664 0)
(-0.101789 -0.080435 0)
(-0.100865 -0.0958283 0)
(-0.0993532 -0.110834 0)
(-0.0965126 -0.124727 0)
(-0.0910787 -0.135702 0)
(-0.0815356 -0.139919 0)
(-0.0661115 -0.130503 0)
(-0.040912 -0.0936498 0)
(-0.00205166 -0.016902 0)
(-0.000670082 0.0173424 0)
(-0.00302863 0.0258091 0)
(-0.00549077 0.0287362 0)
(-0.00801089 0.0306086 0)
(-0.0106015 0.0322767 0)
(-0.0132238 0.0339585 0)
(-0.0158929 0.0357371 0)
(-0.018631 0.0376496 0)
(-0.0214567 0.039708 0)
(-0.0243875 0.041906 0)
(-0.0274435 0.0442256 0)
(-0.0306526 0.0466474 0)
(-0.0340553 0.0491667 0)
(-0.0377077 0.0518093 0)
(-0.0416817 0.0546412 0)
(-0.0460561 0.0577563 0)
(-0.0508933 0.0612204 0)
(-0.0562236 0.0649594 0)
(-0.062038 0.0686085 0)
(-0.0681256 0.0711832 0)
(-0.074064 0.0711487 0)
(-0.0792898 0.0671735 0)
(-0.0834201 0.0588009 0)
(-0.0863558 0.0466931 0)
(-0.0882696 0.0320893 0)
(-0.0894042 0.0161312 0)
(-0.0899372 -0.000419606 0)
(-0.090002 -0.0170586 0)
(-0.0897478 -0.0334893 0)
(-0.0893445 -0.0495809 0)
(-0.0889239 -0.0653626 0)
(-0.0885619 -0.0809788 0)
(-0.0882145 -0.0966035 0)
(-0.0876187 -0.112278 0)
(-0.0861641 -0.127607 0)
(-0.0827054 -0.141293 0)
(-0.0759969 -0.149894 0)
(-0.0645248 -0.147389 0)
(-0.0459757 -0.120801 0)
(-0.0115632 -0.0370185 0)
(-0.000579388 0.0190148 0)
(-0.00272294 0.0281391 0)
(-0.00499236 0.0311912 0)
(-0.00731726 0.0330922 0)
(-0.00970239 0.0347791 0)
(-0.0121052 0.0364921 0)
(-0.0145341 0.038319 0)
(-0.0170062 0.040297 0)
(-0.0195371 0.0424376 0)
(-0.0221422 0.0447364 0)
(-0.0248405 0.0471807 0)
(-0.0276576 0.0497613 0)
(-0.0306288 0.0524858 0)
(-0.0337996 0.0553928 0)
(-0.0372225 0.0585544 0)
(-0.0409457 0.0620557 0)
(-0.0449899 0.0659284 0)
(-0.0493676 0.0700538 0)
(-0.0540367 0.0739591 0)
(-0.0588005 0.0764492 0)
(-0.0633463 0.0759712 0)
(-0.0672885 0.0712216 0)
(-0.0703996 0.0619251 0)
(-0.0726601 0.0489178 0)
(-0.0742062 0.0335409 0)
(-0.0751875 0.0169446 0)
(-0.0756932 -0.000112776 0)
(-0.0758132 -0.0171136 0)
(-0.0756653 -0.0337578 0)
(-0.0753949 -0.049913 0)
(-0.0751447 -0.0656356 0)
(-0.0750203 -0.0811481 0)
(-0.0750365 -0.096767 0)
(-0.0750316 -0.112771 0)
(-0.0745085 -0.129124 0)
(-0.0724853 -0.144979 0)
(-0.0674604 -0.157665 0)
(-0.0586653 -0.161266 0)
(-0.0427253 -0.14519 0)
(-0.0169797 -0.0773731 0)
(-0.00047944 0.0204865 0)
(-0.00238846 0.0302524 0)
(-0.00444365 0.0334344 0)
(-0.0065523 0.0353628 0)
(-0.00871133 0.0370588 0)
(-0.0108751 0.0387856 0)
(-0.0130452 0.0406375 0)
(-0.0152329 0.0426533 0)
(-0.0174496 0.0448453 0)
(-0.0197075 0.0472114 0)
(-0.0220214 0.0497437 0)
(-0.0244116 0.0524402 0)
(-0.026904 0.0553168 0)
(-0.029529 0.0584171 0)
(-0.0323159 0.061811 0)
(-0.0352808 0.0655655 0)
(-0.0384126 0.0696788 0)
(-0.0417007 0.0740057 0)
(-0.0451125 0.0779948 0)
(-0.0484824 0.0803317 0)
(-0.0516314 0.0794837 0)
(-0.0543922 0.0742038 0)
(-0.0566497 0.0643128 0)
(-0.0584152 0.0507218 0)
(-0.0597554 0.0348129 0)
(-0.0607227 0.0177397 0)
(-0.0613291 0.000276045 0)
(-0.0616141 -0.0170447 0)
(-0.0616626 -0.0338843 0)
(-0.061602 -0.0500913 0)
(-0.0615784 -0.0657304 0)
(-0.0617133 -0.0810845 0)
(-0.0620484 -0.0965946 0)
(-0.0624869 -0.11273 0)
(-0.0626553 -0.129785 0)
(-0.061707 -0.147377 0)
(-0.0579749 -0.163676 0)
(-0.0513012 -0.171577 0)
(-0.0378259 -0.164617 0)
(-0.0134103 -0.109228 0)
(-0.000374341 0.0217427 0)
(-0.00203509 0.0321309 0)
(-0.00385994 0.0354469 0)
(-0.00573658 0.0374019 0)
(-0.00765414 0.0390982 0)
(-0.00956442 0.0408224 0)
(-0.0114622 0.0426769 0)
(-0.0133528 0.0447028 0)
(-0.0152425 0.0469142 0)
(-0.0171387 0.0493109 0)
(-0.0190509 0.0518889 0)
(-0.0209917 0.0546503 0)
(-0.0229756 0.0576142 0)
(-0.0250161 0.0608224 0)
(-0.0271194 0.0643342 0)
(-0.0292733 0.0681948 0)
(-0.0314438 0.0723853 0)
(-0.0335968 0.0767505 0)
(-0.0357751 0.080727 0)
(-0.0376105 0.0827488 0)
(-0.0394559 0.0817524 0)
(-0.0411153 0.0762311 0)
(-0.0426089 0.0660917 0)
(-0.0439646 0.052233 0)
(-0.045175 0.0360238 0)
(-0.0462028 0.0186261 0)
(-0.0469921 0.000844854 0)
(-0.0475315 -0.0167477 0)
(-0.0478715 -0.0337624 0)
(-0.0481204 -0.0500098 0)
(-0.0484195 -0.0655495 0)
(-0.0488952 -0.0807105 0)
(-0.0496014 -0.0960446 0)
(-0.0504649 -0.112196 0)
(-0.0512194 -0.129724 0)
(-0.0511612 -0.148687 0)
(-0.0488938 -0.167794 0)
(-0.0431194 -0.180156 0)
(-0.0326621 -0.179143 0)
(-0.0119326 -0.134172 0)
(-0.000267829 0.0227751 0)
(-0.00167196 0.0337622 0)
(-0.00325571 0.0372153 0)
(-0.00488975 0.0391965 0)
(-0.00655578 0.0408851 0)
(-0.00820353 0.0425914 0)
(-0.00982131 0.0444266 0)
(-0.0114083 0.0464356 0)
(-0.0129654 0.0486339 0)
(-0.0144944 0.0510233 0)
(-0.0159983 0.0536016 0)
(-0.0174812 0.0563721 0)
(-0.0189456 0.0593521 0)
(-0.0203889 0.0625769 0)
(-0.0217973 0.0660922 0)
(-0.0231383 0.0699264 0)
(-0.0243572 0.074047 0)
(-0.0253981 0.0782847 0)
(-0.0262905 0.0820845 0)
(-0.0268026 0.0838094 0)
(-0.0273134 0.082804 0)
(-0.0279099 0.077348 0)
(-0.0286442 0.0673014 0)
(-0.0295838 0.0534902 0)
(-0.0306632 0.037221 0)
(-0.0317685 0.0196646 0)
(-0.0327828 0.00167129 0)
(-0.0336454 -0.0161303 0)
(-0.0343695 -0.0332863 0)
(-0.0350396 -0.0495551 0)
(-0.0357827 -0.0649814 0)
(-0.0367181 -0.0799332 0)
(-0.037901 -0.0950591 0)
(-0.0392657 -0.111168 0)
(-0.0405936 -0.129038 0)
(-0.0413084 -0.149111 0)
(-0.0402934 -0.170581 0)
(-0.0353059 -0.18817 0)
(-0.0279882 -0.192325 0)
(-0.00964793 -0.156436 0)
(-0.000163184 0.023582 0)
(-0.00130802 0.0351388 0)
(-0.0026447 0.038731 0)
(-0.00403017 0.040738 0)
(-0.00543935 0.0424117 0)
(-0.0068204 0.0440863 0)
(-0.00815586 0.0458824 0)
(-0.00943867 0.0478486 0)
(-0.0106641 0.0500025 0)
(-0.0118282 0.0523469 0)
(-0.0129277 0.05488 0)
(-0.0139579 0.057604 0)
(-0.0149107 0.0605316 0)
(-0.0157696 0.0636882 0)
(-0.0165048 0.0671038 0)
(-0.0170691 0.0707882 0)
(-0.0173943 0.0746942 0)
(-0.0174038 0.0786458 0)
(-0.0170568 0.0821117 0)
(-0.0164398 0.0836705 0)
(-0.0157044 0.0826676 0)
(-0.015206 0.0775255 0)
(-0.0151234 0.0678956 0)
(-0.0155643 0.0544496 0)
(-0.0164423 0.0383835 0)
(-0.0175867 0.0208663 0)
(-0.0188281 0.00280094 0)
(-0.0200575 -0.0151152 0)
(-0.0212469 -0.0323521 0)
(-0.0224469 -0.0486043 0)
(-0.0237584 -0.0638936 0)
(-0.0252811 -0.0786212 0)
(-0.0270599 -0.0935214 0)
(-0.0290394 -0.109547 0)
(-0.0310092 -0.127667 0)
(-0.0325055 -0.148606 0)
(-0.032532 -0.171855 0)
(-0.0292312 -0.193722 0)
(-0.0229182 -0.202247 0)
(-0.00832972 -0.173279 0)
(-6.32735e-05 0.0241658 0)
(-0.000949913 0.0362589 0)
(-0.0020386 0.039991 0)
(-0.0031741 0.0420235 0)
(-0.00432584 0.0436763 0)
(-0.00544089 0.0453072 0)
(-0.00649626 0.047046 0)
(-0.00747928 0.0489457 0)
(-0.00837989 0.0510259 0)
(-0.00918885 0.05329 0)
(-0.00989661 0.0557355 0)
(-0.0104915 0.0583614 0)
(-0.0109565 0.0611737 0)
(-0.0112651 0.0641859 0)
(-0.0113767 0.0674115 0)
(-0.0112343 0.0708434 0)
(-0.0107622 0.0744201 0)
(-0.00987267 0.0779617 0)
(-0.00850256 0.0809849 0)
(-0.0068175 0.0824188 0)
(-0.00499141 0.0814136 0)
(-0.00341888 0.0767171 0)
(-0.00244707 0.0677684 0)
(-0.00226584 0.0549936 0)
(-0.00281798 0.0394232 0)
(-0.00391093 0.0221899 0)
(-0.00533728 0.00424216 0)
(-0.00694374 -0.013649 0)
(-0.00865532 -0.0308702 0)
(-0.0104748 -0.0470441 0)
(-0.01246 -0.0621632 0)
(-0.0146756 -0.0766542 0)
(-0.0171486 -0.0913231 0)
(-0.0198298 -0.107245 0)
(-0.0225142 -0.125586 0)
(-0.0248033 -0.147326 0)
(-0.0257238 -0.172322 0)
(-0.0238814 -0.198149 0)
(-0.0193271 -0.211508 0)
(-0.00692184 -0.188532 0)
(2.9219e-05 0.0245347 0)
(-0.000605739 0.0371245 0)
(-0.00144973 0.040996 0)
(-0.00233831 0.0430541 0)
(-0.00323614 0.044681 0)
(-0.00408995 0.0462571 0)
(-0.00487205 0.0479225 0)
(-0.00556467 0.0497346 0)
(-0.006153 0.0517149 0)
(-0.0066231 0.0538672 0)
(-0.00696043 0.0561873 0)
(-0.00714769 0.0586703 0)
(-0.00716182 0.0613144 0)
(-0.00696992 0.0641209 0)
(-0.00652533 0.0670876 0)
(-0.0057664 0.0701907 0)
(-0.00461628 0.0733569 0)
(-0.00298731 0.0764117 0)
(-0.000822642 0.078941 0)
(0.00175362 0.0801314 0)
(0.00451239 0.0791287 0)
(0.00705435 0.0749217 0)
(0.00893994 0.0668139 0)
(0.00986179 0.0549734 0)
(0.00979144 0.0402037 0)
(0.00888572 0.0235423 0)
(0.00736244 0.00595646 0)
(0.0054139 -0.0117177 0)
(0.00316541 -0.0287843 0)
(0.000676838 -0.0447919 0)
(-0.0020437 -0.0597013 0)
(-0.00501263 -0.0739482 0)
(-0.00823723 -0.0883865 0)
(-0.0116649 -0.104195 0)
(-0.0151047 -0.122718 0)
(-0.0181796 -0.145166 0)
(-0.0199968 -0.171786 0)
(-0.0194852 -0.200394 0)
(-0.0162389 -0.218105 0)
(-0.00588012 -0.200539 0)
(0.000111792 0.0247105 0)
(-0.000282443 0.037743 0)
(-0.000889742 0.0417517 0)
(-0.00153869 0.0438349 0)
(-0.00219056 0.0454315 0)
(-0.0027921 0.046944 0)
(-0.00331186 0.0485224 0)
(-0.0037278 0.0502289 0)
(-0.00402119 0.052087 0)
(-0.00417437 0.0541007 0)
(-0.00416907 0.0562641 0)
(-0.00398427 0.058568 0)
(-0.00359334 0.0610029 0)
(-0.00296038 0.0635585 0)
(-0.00203726 0.0662185 0)
(-0.000763142 0.0689449 0)
(0.000934937 0.071655 0)
(0.00313662 0.0741819 0)
(0.00588881 0.0761838 0)
(0.00910944 0.0770344 0)
(0.0125749 0.0759868 0)
(0.0159151 0.0721969 0)
(0.0186423 0.0649831 0)
(0.020349 0.0542554 0)
(0.0208815 0.0405624 0)
(0.0203118 0.0247831 0)
(0.0188249 0.0078483 0)
(0.0166256 -0.00936482 0)
(0.0138916 -0.0260972 0)
(0.0107559 -0.041829 0)
(0.00730526 -0.056478 0)
(0.00357781 -0.0704702 0)
(-0.000403286 -0.0846858 0)
(-0.00457772 -0.100384 0)
(-0.00877651 -0.119072 0)
(-0.0126306 -0.142192 0)
(-0.0153521 -0.170361 0)
(-0.0159867 -0.201883 0)
(-0.0139512 -0.224046 0)
(-0.00508923 -0.211486 0)
(0.000186652 0.0246776 0)
(9.05605e-06 0.0381233 0)
(-0.000368716 0.0422681 0)
(-0.000789131 0.0443758 0)
(-0.00120631 0.0459382 0)
(-0.00156796 0.0473797 0)
(-0.0018398 0.0488599 0)
(-0.00199634 0.050446 0)
(-0.00201579 0.0521638 0)
(-0.0018778 0.0540177 0)
(-0.00156168 0.0560003 0)
(-0.00104448 0.0580983 0)
(-0.000298598 0.0602953 0)
(0.000712054 0.0625712 0)
(0.00203331 0.0648973 0)
(0.00372089 0.0672246 0)
(0.00583909 0.0694649 0)
(0.00845304 0.07146 0)
(0.0116023 0.0729281 0)
(0.0152305 0.0733887 0)
(0.0191477 0.0722224 0)
(0.0230253 0.0687417 0)
(0.0264063 0.0623468 0)
(0.0288275 0.0527888 0)
(0.0299985 0.0403591 0)
(0.0298732 0.0257441 0)
(0.0285697 0.0097692 0)
(0.0262633 -0.00670811 0)
(0.023169 -0.0228894 0)
(0.0194914 -0.0382102 0)
(0.0153918 -0.0525345 0)
(0.0109748 -0.0662523 0)
(0.00630173 -0.0802486 0)
(0.00143492 -0.0958364 0)
(-0.00347525 -0.114666 0)
(-0.00805586 -0.138407 0)
(-0.0115933 -0.16798 0)
(-0.0132179 -0.201996 0)
(-0.0122348 -0.228279 0)
(-0.00442957 -0.22054 0)
(0.000229378 0.0245215 0)
(0.000265549 0.0382834 0)
(0.000103062 0.0425581 0)
(-0.000102157 0.0446885 0)
(-0.000298902 0.0462143 0)
(-0.000435633 0.0475791 0)
(-0.000476294 0.0489524 0)
(-0.000392773 0.0504065 0)
(-0.000161178 0.0519702 0)
(0.000240489 0.0536486 0)
(0.00083403 0.0554332 0)
(0.00164266 0.0573074 0)
(0.0026933 0.0592493 0)
(0.00401912 0.061231 0)
(0.00566078 0.0632142 0)
(0.00766626 0.0651421 0)
(0.0100881 0.0669242 0)
(0.0129754 0.068414 0)
(0.0163568 0.0693752 0)
(0.0201889 0.0694391 0)
(0.0243187 0.068108 0)
(0.0284628 0.064833 0)
(0.0322272 0.059113 0)
(0.0351608 0.0506619 0)
(0.0368921 0.0395664 0)
(0.0372414 0.0262983 0)
(0.0362294 0.0115489 0)
(0.0339802 -0.00391902 0)
(0.0307033 -0.0193228 0)
(0.0266551 -0.0340754 0)
(0.0220654 -0.0479881 0)
(0.0171023 -0.0613983 0)
(0.0118566 -0.0751626 0)
(0.00639304 -0.0906293 0)
(0.000855778 -0.10958 0)
(-0.00438905 -0.133914 0)
(-0.00867095 -0.16487 0)
(-0.0111402 -0.201392 0)
(-0.0110557 -0.231975 0)
(-0.00405539 -0.22896 0)
(0.000274878 0.0242033 0)
(0.00049055 0.0382414 0)
(0.000519511 0.0426386 0)
(0.000511467 0.0447894 0)
(0.000518357 0.0462758 0)
(0.000588957 0.0475592 0)
(0.000760841 0.0488187 0)
(0.00106371 0.0501324 0)
(0.00152264 0.051532 0)
(0.00216018 0.0530241 0)
(0.00299795 0.0546 0)
(0.00405814 0.0562409 0)
(0.00536528 0.0579207 0)
(0.00694805 0.0596059 0)
(0.00884014 0.0612521 0)
(0.0110797 0.0627976 0)
(0.0137064 0.0641526 0)
(0.016754 0.0651832 0)
(0.0202352 0.0656901 0)
(0.0241152 0.0653859 0)
(0.0282665 0.0638835 0)
(0.0324511 0.0607467 0)
(0.0363366 0.0555703 0)
(0.0395212 0.0480895 0)
(0.0416213 0.0382813 0)
(0.0423754 0.0264341 0)
(0.0416925 0.0130713 0)
(0.0396318 -0.00117154 0)
(0.0363653 -0.0155935 0)
(0.0321574 -0.029619 0)
(0.0272839 -0.043019 0)
(0.0219542 -0.0560614 0)
(0.0162875 -0.0695548 0)
(0.0103608 -0.0848626 0)
(0.00431084 -0.103892 0)
(-0.00150506 -0.128781 0)
(-0.00642643 -0.161043 0)
(-0.00957506 -0.199869 0)
(-0.0102766 -0.234788 0)
(-0.00371715 -0.236429 0)
(0.000306741 0.0237698 0)
(0.000674785 0.0380241 0)
(0.000872779 0.0425309 0)
(0.00104162 0.0446979 0)
(0.00123263 0.0461411 0)
(0.00149157 0.0473387 0)
(0.00185643 0.0484791 0)
(0.00235757 0.049646 0)
(0.00302032 0.0508749 0)
(0.00386684 0.0521744 0)
(0.00491752 0.0535364 0)
(0.00619236 0.0549412 0)
(0.00771234 0.0563604 0)
(0.00950062 0.0577567 0)
(0.011583 0.0590825 0)
(0.0139873 0.0602742 0)
(0.01674 0.0612454 0)
(0.0198602 0.0618751 0)
(0.023347 0.0619949 0)
(0.0271641 0.0613759 0)
(0.0312039 0.0597257 0)
(0.0352689 0.0566986 0)
(0.0390778 0.0519766 0)
(0.0422885 0.0453294 0)
(0.0445466 0.0366917 0)
(0.0455621 0.0262242 0)
(0.0451723 0.0142981 0)
(0.0433679 0.00140377 0)
(0.0402616 -0.0118901 0)
(0.0360877 -0.0250498 0)
(0.0311285 -0.0378254 0)
(0.0256141 -0.0504209 0)
(0.0196922 -0.0635843 0)
(0.0134488 -0.0786741 0)
(0.00700422 -0.0977086 0)
(0.000703406 -0.1231 0)
(-0.00477211 -0.156658 0)
(-0.00846052 -0.197754 0)
(-0.0100159 -0.237191 0)
(-0.00338024 -0.243641 0)
(0.000322266 0.0232527 0)
(0.00081291 0.0376582 0)
(0.00115507 0.0422582 0)
(0.00147831 0.0444347 0)
(0.00183226 0.0458301 0)
(0.00225948 0.0469374 0)
(0.0027974 0.047954 0)
(0.00347618 0.0489696 0)
(0.00432047 0.0500236 0)
(0.00535112 0.0511276 0)
(0.00658645 0.052275 0)
(0.0080434 0.0534465 0)
(0.00973859 0.0546126 0)
(0.0116891 0.0557348 0)
(0.0139128 0.0567641 0)
(0.0164272 0.0576378 0)
(0.0192465 0.0582745 0)
(0.0223768 0.0585663 0)
(0.0258061 0.0583711 0)
(0.0294907 0.0575057 0)
(0.0333401 0.055746 0)
(0.037189 0.0528299 0)
(0.0407989 0.0485051 0)
(0.0438836 0.0425834 0)
(0.0461334 0.0349868 0)
(0.047268 0.0257951 0)
(0.0470955 0.0152584 0)
(0.045548 0.00373183 0)
(0.042681 -0.00835191 0)
(0.0386761 -0.0205399 0)
(0.0337906 -0.0325859 0)
(0.028258 -0.0446444 0)
(0.0222344 -0.0574007 0)
(0.0158068 -0.0721986 0)
(0.00908552 -0.0911589 0)
(0.00239904 -0.116962 0)
(-0.00353487 -0.151758 0)
(-0.00763924 -0.195135 0)
(-0.00993596 -0.238945 0)
(-0.00312491 -0.250645 0)
(0.000321418 0.0226793 0)
(0.000901073 0.0371732 0)
(0.00135903 0.041846 0)
(0.00181176 0.0440227 0)
(0.00230597 0.0453639 0)
(0.00288077 0.0463755 0)
(0.00357217 0.0472635 0)
(0.00440914 0.0481238 0)
(0.00541475 0.0490006 0)
(0.00660769 0.0499088 0)
(0.00800342 0.0508442 0)
(0.00961517 0.0517889 0)
(0.0114547 0.0527141 0)
(0.013533 0.0535814 0)
(0.0158601 0.0543425 0)
(0.018444 0.0549373 0)
(0.0212883 0.0552905 0)
(0.0243878 0.0553072 0)
(0.0277212 0.054868 0)
(0.0312406 0.0538255 0)
(0.0348615 0.0520052 0)
(0.0384473 0.0492136 0)
(0.0417986 0.0452535 0)
(0.0446743 0.0399742 0)
(0.0468115 0.0332976 0)
(0.0479571 0.0252585 0)
(0.0479182 0.0160156 0)
(0.0465931 0.00580892 0)
(0.0439868 -0.00504943 0)
(0.0402248 -0.0162046 0)
(0.0355231 -0.0274399 0)
(0.0300951 -0.0388751 0)
(0.0240932 -0.0511355 0)
(0.0176007 -0.0655469 0)
(0.0107099 -0.084335 0)
(0.00373245 -0.110457 0)
(-0.00261599 -0.146435 0)
(-0.00705221 -0.192138 0)
(-0.0101412 -0.240358 0)
(-0.00282014 -0.257682 0)
(0.000303764 0.0220819 0)
(0.000934664 0.0366026 0)
(0.00147655 0.0413231 0)
(0.00203144 0.0434869 0)
(0.00264202 0.0447646 0)
(0.00334361 0.045673 0)
(0.00416985 0.0464265 0)
(0.00514749 0.0471275 0)
(0.00629702 0.0478253 0)
(0.00763411 0.048539 0)
(0.00917065 0.0492673 0)
(0.0109157 0.0499946 0)
(0.0128759 0.0506937 0)
(0.0150562 0.0513279 0)
(0.0174593 0.0518508 0)
(0.0200851 0.0522062 0)
(0.022928 0.0523257 0)
(0.0259737 0.0521264 0)
(0.0291936 0.0515083 0)
(0.0325375 0.0503529 0)
(0.035925 0.0485245 0)
(0.0392388 0.0458766 0)
(0.0423146 0.0422625 0)
(0.0449499 0.0375612 0)
(0.046924 0.0317027 0)
(0.0480159 0.0246942 0)
(0.0480449 0.0166299 0)
(0.0468967 0.00766045 0)
(0.0445396 -0.00200464 0)
(0.04105 -0.0121082 0)
(0.036593 -0.0224786 0)
(0.031351 -0.0332174 0)
(0.0254639 -0.0448988 0)
(0.0190039 -0.0588253 0)
(0.0120351 -0.0773163 0)
(0.00483714 -0.10363 0)
(-0.00189787 -0.140718 0)
(-0.00655431 -0.18878 0)
(-0.0104982 -0.241386 0)
(-0.0024621 -0.264917 0)
(0.000267881 0.0214969 0)
(0.000907388 0.0359843 0)
(0.00149765 0.0407215 0)
(0.00212498 0.042854 0)
(0.00282713 0.0440546 0)
(0.00363521 0.0448492 0)
(0.00457935 0.0454601 0)
(0.00568283 0.0459968 0)
(0.00696243 0.0465139 0)
(0.00842985 0.0470349 0)
(0.0100927 0.0475621 0)
(0.0119555 0.0480828 0)
(0.0140198 0.0485722 0)
(0.0162846 0.048996 0)
(0.0187465 0.0493109 0)
(0.0213978 0.0494651 0)
(0.0242258 0.0493972 0)
(0.0272091 0.0490355 0)
(0.030314 0.0482964 0)
(0.0334887 0.0470844 0)
(0.0366579 0.0452941 0)
(0.0397177 0.0428138 0)
(0.0425312 0.0395346 0)
(0.0449295 0.0353616 0)
(0.0467282 0.0302357 0)
(0.0477389 0.0241476 0)
(0.047798 0.0171458 0)
(0.0467888 0.00931687 0)
(0.0446591 0.000785958 0)
(0.0414436 -0.0082781 0)
(0.0372594 -0.0177553 0)
(0.0322541 -0.0277436 0)
(0.0265487 -0.0387746 0)
(0.0201993 -0.0521241 0)
(0.0132329 -0.0701953 0)
(0.0058772 -0.0965591 0)
(-0.00120837 -0.134633 0)
(-0.00605149 -0.185106 0)
(-0.0110158 -0.242039 0)
(-0.0019468 -0.272345 0)
(0.000211706 0.0209646 0)
(0.000812068 0.0353613 0)
(0.00140967 0.0400768 0)
(0.00207699 0.0421524 0)
(0.00284529 0.0432563 0)
(0.00374082 0.0439217 0)
(0.00478853 0.044379 0)
(0.00600662 0.0447442 0)
(0.00740674 0.0450779 0)
(0.00899559 0.045408 0)
(0.0107759 0.0457407 0)
(0.012747 0.0460662 0)
(0.0149057 0.0463628 0)
(0.0172456 0.0465989 0)
(0.0197575 0.0467347 0)
(0.0224281 0.0467232 0)
(0.0252386 0.0465099 0)
(0.0281626 0.0460327 0)
(0.0311629 0.0452222 0)
(0.0341877 0.0440014 0)
(0.0371665 0.0422878 0)
(0.0400067 0.0399968 0)
(0.0425923 0.0370459 0)
(0.0447816 0.0333633 0)
(0.0464196 0.0288993 0)
(0.0473487 0.0236359 0)
(0.0474238 0.017591 0)
(0.0465333 0.0108043 0)
(0.0446126 0.0033363 0)
(0.0416634 -0.00471989 0)
(0.0377618 -0.0132972 0)
(0.0330214 -0.0225 0)
(0.027543 -0.0328244 0)
(0.0213641 -0.0455126 0)
(0.0144711 -0.0630298 0)
(0.00702447 -0.089258 0)
(-0.000421353 -0.128175 0)
(-0.0054321 -0.181156 0)
(-0.0116356 -0.242251 0)
(-0.00121411 -0.280054 0)
(0.000132428 0.0205291 0)
(0.000634692 0.034781 0)
(0.00119371 0.0394278 0)