/*--------------------------------*- C++ -*----------------------------------*\
  =========                 |
  \\      /  F ield         | OpenFOAM: The Open Source CFD Toolbox
   \\    /   O peration     | Website:  https://openfoam.org
    \\  /    A nd           | Version:  12
     \\/     M anipulation  |
\*---------------------------------------------------------------------------*/
FoamFile
{
    format      ascii;
    class       volScalarField;
    location    "6";
    object      epsilon;
}
// * * * * * * * * * * * * * * * * * * * * * * * * * * * * * * * * * * * * * //

dimensions      [0 2 -3 0 0 0 0];

internalField   nonuniform List<scalar> 
1600
(
2.3025e-05
8.21747e-05
0.000162871
0.000169954
0.000158335
0.000162926
0.000206953
0.000339712
0.000496476
0.000669145
0.00106296
0.00139545
0.00157121
0.00174258
0.00200953
0.00235884
0.00270216
0.00307725
0.00345843
0.00387435
0.00431866
0.00481072
0.00535891
0.00598563
0.00672716
0.00740317
0.0080861
0.00867329
0.0091809
0.00945469
0.009563
0.00935953
0.00856567
0.00720575
0.00533595
0.00307356
0.00145465
0.000594009
0.000184498
3.75379e-05
0.00011126
0.000141351
0.000179336
0.000175347
0.000173903
0.000207604
0.00035294
0.000734181
0.00130785
0.00209347
0.00377775
0.00480227
0.00497664
0.00473803
0.00443921
0.00429322
0.00418706
0.0041482
0.00414363
0.00422636
0.00435374
0.00454107
0.00475325
0.00501251
0.00532921
0.00571707
0.00615294
0.00665611
0.00716254
0.00759888
0.00779954
0.00783468
0.00731789
0.00632109
0.00465395
0.00263331
0.00107203
0.000454591
0.000160236
6.52521e-05
0.000334992
0.000360802
0.000377029
0.000365657
0.000415644
0.000680209
0.00144599
0.00293692
0.004904
0.00580743
0.00584486
0.00500182
0.00458104
0.00407279
0.00368298
0.00341695
0.00319893
0.00305939
0.00297884
0.00294486
0.00293666
0.00297311
0.00306857
0.00320355
0.00337768
0.00358745
0.00384066
0.00414192
0.00449489
0.00491421
0.00540697
0.00586607
0.00608209
0.00603049
0.00523667
0.00349501
0.00109878
0.000291665
0.000101311
5.38651e-05
0.000777017
0.000712671
0.000719938
0.000780834
0.00113244
0.00217012
0.00410985
0.00566703
0.00609577
0.00562111
0.00496276
0.00385701
0.00327485
0.00278754
0.00255303
0.0023466
0.00223907
0.00217767
0.00215334
0.0021494
0.00218419
0.00223816
0.00231532
0.00241061
0.00252823
0.0026688
0.00283917
0.00304323
0.00328655
0.00357281
0.00390376
0.00428949
0.00478316
0.00531492
0.00552733
0.00508399
0.00257482
0.000440262
8.79674e-05
3.87514e-05
0.00148711
0.00122424
0.00131265
0.00165634
0.00262672
0.00437052
0.00563656
0.00593516
0.00551473
0.00431882
0.00320874
0.00265622
0.00227759
0.00203285
0.00190798
0.00183021
0.00180008
0.00179276
0.00181204
0.00184848
0.00189648
0.00195205
0.00201762
0.00209422
0.00218656
0.0022991
0.00243927
0.00261282
0.00282287
0.00307051
0.00335386
0.0036698
0.00402807
0.00449163
0.00517426
0.00549505
0.00491044
0.00142037
0.000177023
4.76822e-05
0.00251623
0.00195224
0.0022234
0.00292223
0.00424781
0.00533344
0.00562118
0.00531027
0.00393293
0.00282076
0.00226875
0.00194687
0.00174445
0.00164658
0.001604
0.0015906
0.00159464
0.00162229
0.00165315
0.00169132
0.00173299
0.00178129
0.00183872
0.00190875
0.00199578
0.00210494
0.00224197
0.00241212
0.00261996
0.00286706
0.00315087
0.0034691
0.00379704
0.00414813
0.00458483
0.00515957
0.00540283
0.00377247
0.000552805
9.50648e-05
0.00384833
0.00289183
0.00331832
0.00414891
0.00502139
0.00530633
0.00510041
0.00382368
0.00261171
0.00203209
0.00173469
0.0015618
0.00147981
0.00144695
0.00143753
0.00143733
0.00145064
0.0014642
0.00147883
0.00149667
0.00151897
0.00155102
0.00159593
0.00165884
0.00174471
0.00185985
0.00201059
0.00220321
0.0024423
0.00272817
0.00305337
0.00340075
0.00375786
0.00408728
0.00443396
0.0048503
0.0051536
0.00501762
0.00141082
0.000218768
0.00528264
0.00392557
0.00433935
0.00488676
0.0051108
0.00494306
0.00390619
0.00256698
0.00191268
0.00159777
0.00143611
0.00135581
0.0013197
0.00130359
0.00129491
0.00128559
0.00127627
0.00126343
0.00125341
0.00124892
0.00124852
0.00126382
0.00129496
0.00134733
0.00142623
0.00153852
0.00169241
0.00189756
0.00216364
0.00249709
0.00289473
0.00333504
0.00377397
0.00418084
0.00447189
0.00478631
0.00510306
0.00520911
0.00307028
0.000549689
0.00654934
0.00487966
0.00510785
0.00521389
0.0049227
0.00410158
0.00273044
0.00189912
0.00152589
0.0013476
0.0012594
0.00121597
0.00119166
0.00116854
0.00114171
0.00110954
0.00107472
0.0010399
0.0010101
0.000990011
0.000981459
0.000980716
0.00100241
0.00104393
0.0011116
0.00121186
0.00135392
0.00155015
0.00181592
0.00216767
0.00261684
0.00315707
0.00374606
0.00429608
0.00472804
0.00494422
0.00520574
0.00533695
0.00465089
0.00147415
0.00748171
0.00560291
0.00555411
0.00518783
0.00443424
0.00312524
0.00202273
0.00152202
0.00129612
0.00118827
0.0011344
0.00110006
0.00106635
0.00102538
0.00097765
0.00092608
0.000875089
0.000828812
0.000790649
0.000763455
0.000750345
0.000746465
0.000759042
0.000792349
0.000847537
0.000931757
0.00105357
0.00122621
0.00146808
0.00180322
0.00225825
0.00285155
0.00356916
0.00433011
0.00497425
0.0052758
0.00543243
0.00551397
0.00520074
0.00262079
0.0081429
0.00607279
0.00576757
0.00501016
0.00373843
0.00236077
0.00161776
0.00129259
0.00114479
0.00107307
0.00102958
0.00098813
0.000938895
0.000881012
0.000818732
0.000756971
0.000700161
0.000651515
0.000612796
0.000585344
0.000571838
0.000567329
0.000574906
0.000601345
0.000645572
0.000714092
0.000814511
0.000959316
0.00116731
0.00146602
0.00189242
0.00248752
0.0032759
0.00421903
0.00514783
0.00564297
0.00582283
0.00586765
0.00560307
0.00374165
0.00852044
0.00629467
0.00572912
0.00462985
0.00306276
0.0018884
0.00136659
0.00113898
0.0010337
0.000978397
0.000931889
0.000878618
0.000815786
0.000747051
0.000678341
0.000614525
0.000558887
0.000513119
0.000477697
0.000452824
0.000440476
0.000436178
0.000441025
0.00046181
0.00049712
0.000552204
0.000633609
0.000752237
0.000925483
0.00118089
0.00156019
0.00212037
0.00292199
0.0039864
0.00520413
0.00602526
0.00626304
0.00626802
0.00596828
0.00465303
0.0085132
0.00628714
0.00558879
0.00417165
0.00251014
0.00158838
0.00119766
0.00102678
0.000945641
0.000894001
0.000839796
0.000775924
0.000704417
0.000631241
0.0005623
0.000501357
0.000450232
0.000409314
0.000378231
0.000356497
0.000345528
0.000341618
0.000344773
0.000361085
0.000389439
0.000433883
0.000499921
0.000596698
0.000739338
0.000953111
0.00127962
0.00178347
0.00255159
0.00366577
0.00512147
0.00639807
0.00681879
0.00680443
0.00631341
0.005513
0.00840795
0.00620003
0.0053056
0.0037042
0.00212083
0.00138521
0.00107618
0.000939103
0.000871456
0.000817453
0.000755568
0.000684469
0.000609142
0.000536182
0.000470531
0.000414567
0.000368852
0.000332898
0.000305855
0.000286956
0.000277137
0.000273567
0.000275566
0.000288421
0.000311445
0.000347753
0.000401928
0.000481541
0.000599372
0.000777592
0.00105504
0.00149783
0.00220779
0.00330725
0.00485858
0.00660821
0.00738575
0.00741345
0.00679055
0.00631018
0.00815379
0.00599629
0.0049622
0.00328633
0.00185664
0.00124025
0.000983772
0.000868843
0.000807385
0.000749247
0.000681564
0.000606672
0.000531057
0.000460934
0.000399986
0.000349365
0.000308736
0.000277108
0.000253411
0.000236787
0.000227846
0.000224528
0.000225706
0.000235901
0.00025484
0.000284967
0.000330115
0.000396556
0.000494915
0.000644033
0.000878476
0.00126186
0.00190479
0.00296888
0.00459601
0.0066853
0.00798295
0.00809888
0.00732289
0.007093
0.00771126
0.00573035
0.00460896
0.00294664
0.00166904
0.00113325
0.000911749
0.000811659
0.000752191
0.000690272
0.000619004
0.000542959
0.00046913
0.000402909
0.000346805
0.000301046
0.000264731
0.000236618
0.000215561
0.00020069
0.000192387
0.000189234
0.000189831
0.000197969
0.000213735
0.00023913
0.00027742
0.000333892
0.000417432
0.000543875
0.000743047
0.00107294
0.00164392
0.00264307
0.00430059
0.00667191
0.00854272
0.00887306
0.00793441
0.00785493
0.00718944
0.00543895
0.00426976
0.0026797
0.00153236
0.00105261
0.000855052
0.000764808
0.000705482
0.000640914
0.000567955
0.000492461
0.000421358
0.000359148
0.000307402
0.00026572
0.00023288
0.000207528
0.000188511
0.000174979
0.000167105
0.000164025
0.000164221
0.000170755
0.000184014
0.000205712
0.000238704
0.000287552
0.00035981
0.000468822
0.00063999
0.00092467
0.00142789
0.00234851
0.00398032
0.00651863
0.00904543
0.0097088
0.00860197
0.00861453
0.00657038
0.0051626
0.00396582
0.00247663
0.00143419
0.000992574
0.000810632
0.000726621
0.000666899
0.000600931
0.000527698
0.000453706
0.00038555
0.00032696
0.000278845
0.000240416
0.000210282
0.000187056
0.000169601
0.000157095
0.000149474
0.000146338
0.000146282
0.000151558
0.000162812
0.000181571
0.000210399
0.000253341
0.000316983
0.000412747
0.000562226
0.000810047
0.00125279
0.00209182
0.00367303
0.00632506
0.00946448
0.0105978
0.00937629
0.00937021
0.00595757
0.00489182
0.00370197
0.00232713
0.00136451
0.000947101
0.000776007
0.000695873
0.000635898
0.000569661
0.00049716
0.000425105
0.000359697
0.000304131
0.000258885
0.000222949
0.000194858
0.000173228
0.00015695
0.000145225
0.000137754
0.000134439
0.000134181
0.000138471
0.000148124
0.000164518
0.000190024
0.000228308
0.000285272
0.000370934
0.0005038
0.000722314
0.00111308
0.00187165
0.00337917
0.00609665
0.00979221
0.0115137
0.0102344
0.0101225
0.00525304
0.00465061
0.00348381
0.0022192
0.00132081
0.000917518
0.000749926
0.000671595
0.000611702
0.000546134
0.000475053
0.000405106
0.00034217
0.000289008
0.000245895
0.00021176
0.000185138
0.000164661
0.000149239
0.000138085
0.000130737
0.00012718
0.000126731
0.000130257
0.000138558
0.00015303
0.000175879
0.000210449
0.000262161
0.000340097
0.000460382
0.000656163
0.00100392
0.00168855
0.00311294
0.00587471
0.010008
0.0124533
0.011212
0.0108761
0.00468531
0.00444341
0.00331021
0.00215023
0.00129783
0.0008952
0.000731229
0.000652935
0.000593502
0.000529386
0.000460349
0.000392582
0.000331517
0.000280077
0.000238496
0.000205664
0.000180102
0.000160447
0.000145613
0.000134813
0.000127584
0.000123787
0.000123318
0.000126363
0.000133703
0.000146661
0.000167162
0.000198428
0.000245943
0.000317931
0.000428727
0.000607176
0.000920012
0.00153785
0.00286975
0.00563592
0.0101597
0.0134041
0.0123024
0.0116223
0.0042046
0.00425173
0.00319303
0.00210398
0.00130135
0.000894295
0.000718499
0.000639192
0.00058024
0.000518251
0.000451523
0.000385872
0.000327271
0.000277591
0.000237149
0.000205041
0.000179928
0.000160516
0.000145764
0.000134955
0.000127609
0.000123536
0.000122866
0.000125402
0.000132085
0.0001442
0.000163168
0.000192188
0.000236127
0.000302962
0.00040665
0.000572269
0.000857727
0.00141815
0.0026564
0.00538914
0.0102343
0.0143623
0.0135196
0.0123678
0.00377989
0.00409119
0.00312018
0.00210276
0.00131777
0.00090119
0.000716915
0.000629914
0.000571502
0.00051183
0.000448452
0.000386087
0.000328467
0.000279279
0.000239088
0.000207103
0.000182062
0.000162719
0.000148051
0.000137301
0.000130003
0.000125958
0.000125174
0.000127204
0.000132991
0.000144114
0.000162141
0.000189942
0.00023175
0.000295381
0.000393787
0.000549602
0.000813668
0.00132603
0.00247294
0.00514599
0.0102641
0.0153498
0.0148415
0.0130995
0.00339423
0.0039625
0.00308985
0.00211746
0.00135457
0.000919775
0.00072092
0.000627101
0.00056587
0.00050933
0.000449396
0.00038875
0.000332635
0.000284217
0.000244384
0.000212518
0.000187491
0.00016813
0.000153439
0.000142657
0.00013529
0.000131109
0.00013028
0.000132059
0.000137314
0.000147796
0.00016468
0.000190704
0.000230786
0.000292673
0.0003882
0.000538604
0.000787356
0.00125903
0.00232113
0.00490696
0.0102658
0.0163352
0.0162836
0.0138216
0.00303407
0.00386088
0.00309719
0.002157
0.00141469
0.000957686
0.000733013
0.000629285
0.000565972
0.000510202
0.000452569
0.000394988
0.000341202
0.000293898
0.000254288
0.000222241
0.00019689
0.00017719
0.000162191
0.00015115
0.000143559
0.000139174
0.000138342
0.000140019
0.000145011
0.000155151
0.00017154
0.000196717
0.000235088
0.000294191
0.000387136
0.000534938
0.000775628
0.00121386
0.00220086
0.00468311
0.0101961
0.0173299
0.0178415
0.0145204
0.00269341
0.00378499
0.00312406
0.00222844
0.00149583
0.00101523
0.000758666
0.000636984
0.000568409
0.00051302
0.000458943
0.00040464
0.000353086
0.000306967
0.000267705
0.000235494
0.000209756
0.000189622
0.000174232
0.000162877
0.000155051
0.000150472
0.000149715
0.000151394
0.000156327
0.000166405
0.000182652
0.000207454
0.000245121
0.000303183
0.000394272
0.000538718
0.000773069
0.00119198
0.00210985
0.0044854
0.010111
0.0182912
0.0195321
0.015197
0.002363
0.0037178
0.00317865
0.00232763
0.0016032
0.00109541
0.000802453
0.00065414
0.000575387
0.000518901
0.000467327
0.00041634
0.000367426
0.00032291
0.000284329
0.000252171
0.000226157
0.000205636
0.000189874
0.000178228
0.000170216
0.000165489
0.000164928
0.000166699
0.000171751
0.000182042
0.000198461
0.000223325
0.000260858
0.00031859
0.000409451
0.000554139
0.000785063
0.00118532
0.00204728
0.00431195
0.0100129
0.0192185
0.0213273
0.0158381
0.00204188
0.00365648
0.00325837
0.00243899
0.00173206
0.00120111
0.000868563
0.000687836
0.000590525
0.000528841
0.000477831
0.000429611
0.000383533
0.000341091
0.000303698
0.000272025
0.00024606
0.000225381
0.000209417
0.000197613
0.000189554
0.000184799
0.000184596
0.000186549
0.000191903
0.000202678
0.000219563
0.000244897
0.000282877
0.000341077
0.000432604
0.000578755
0.000810904
0.00119656
0.00201765
0.00416274
0.00988415
0.020124
0.0232108
0.0164469
0.00172316
0.00355815
0.00331253
0.00258791
0.00188371
0.00133343
0.000961007
0.000741675
0.000619507
0.000546029
0.000491974
0.00044486
0.000401183
0.00036103
0.000325309
0.000294663
0.000269242
0.000248822
0.000232995
0.000221312
0.000213444
0.000208964
0.000209159
0.000211496
0.000217422
0.000228898
0.00024653
0.000272742
0.000311774
0.000371332
0.000464667
0.0006138
0.00084997
0.00122964
0.00200957
0.00403728
0.00971775
0.0209758
0.0251304
0.0170106
0.00143965
0.0034349
0.00333215
0.00275179
0.00205568
0.00149473
0.0010867
0.000824701
0.00066922
0.000576102
0.000513296
0.000463878
0.000420965
0.000382612
0.00034872
0.00031956
0.000295238
0.000275619
0.000260415
0.000249284
0.00024192
0.000238231
0.000238826
0.000241791
0.000248656
0.000261032
0.000279718
0.000307263
0.000348015
0.000409944
0.000506349
0.000660043
0.000902866
0.00128422
0.00203084
0.00395726
0.00954275
0.0217325
0.0270088
0.0175388
0.00120093
0.0031931
0.00334646
0.00291228
0.00223334
0.0016757
0.00124484
0.000943598
0.000749717
0.000628594
0.000549407
0.000492115
0.0004464
0.000407855
0.000374888
0.000346988
0.000323922
0.000305456
0.000291271
0.000281165
0.000274578
0.000272265
0.000273399
0.000277207
0.000285374
0.000298961
0.000319093
0.000348567
0.000391882
0.000457469
0.00055851
0.000718849
0.000970882
0.00136401
0.00208812
0.0039253
0.00936295
0.0223682
0.028749
0.0180254
0.000990018
0.00274438
0.00336234
0.00305661
0.00242089
0.00187613
0.00143722
0.00110609
0.000873213
0.000716802
0.000611887
0.000538582
0.00048406
0.000441285
0.000406752
0.00037872
0.00035622
0.000338695
0.000325502
0.000316661
0.000310945
0.00031044
0.000312244
0.000317131
0.000326993
0.000342231
0.000364395
0.000396722
0.000443812
0.000514923
0.00062276
0.000793021
0.00105765
0.00147206
0.00218745
0.00393965
0.00927431
0.0228887
0.0302374
0.0184919
0.000799155
0.00211231
0.00329458
0.00310363
0.00259059
0.002078
0.00165526
0.00131484
0.00105349
0.000861287
0.000723314
0.00062417
0.000551525
0.000496996
0.000455157
0.000422867
0.000398053
0.000379527
0.000366074
0.000357554
0.00035261
0.000353035
0.000355743
0.000362114
0.000373777
0.000391365
0.000416544
0.00045334
0.000506191
0.000585983
0.000704154
0.000890413
0.00117379
0.00162526
0.00235893
0.0040887
0.00926289
0.0233554
0.0313774
0.0189612
0.000694392
0.0015228
0.00305527
0.0030429
0.00276043
0.00229118
0.00189946
0.00156984
0.00129652
0.0010769
0.000905136
0.000773374
0.0006732
0.000597065
0.000539791
0.000496408
0.000463819
0.000440059
0.000423124
0.000412547
0.000406384
0.000406862
0.000410047
0.000417613
0.000431463
0.00045268
0.000482754
0.000527225
0.000589719
0.000684568
0.000820257
0.00103547
0.00135144
0.00187045
0.00266562
0.00445304
0.00957596
0.023981
0.0320109
0.0193775
0.000706681
0.0011877
0.00252983
0.00287104
0.00276631
0.00249735
0.00217885
0.00189117
0.00163111
0.00140041
0.00120268
0.00103757
0.000903327
0.000795759
0.000710298
0.000643986
0.000592784
0.000555135
0.000527812
0.000510217
0.000498355
0.000496852
0.000499822
0.000508164
0.000525155
0.000553227
0.000592993
0.00065305
0.000734884
0.000860338
0.00103151
0.00130673
0.0016903
0.00234539
0.00329955
0.00532676
0.0105505
0.0250221
0.0322695
0.0195238
0.000965474
0.00102944
0.00192296
0.00248641
0.00272465
0.00266409
0.0024972
0.00227895
0.00205701
0.00183873
0.00163017
0.00144005
0.00127086
0.00112962
0.00101416
0.000921277
0.000847614
0.00079095
0.00074836
0.00071996
0.000701234
0.000698956
0.000704167
0.00071884
0.000748752
0.000795273
0.000861859
0.000962076
0.00109395
0.00129473
0.00155471
0.00197307
0.00252116
0.00348038
0.00479072
0.00739481
0.0129215
0.0269221
0.0322437
0.0195333
0.00149874
0.00115481
0.00177131
0.00245178
0.00286619
0.00305614
0.00305903
0.00297737
0.00280702
0.00260638
0.0023961
0.00218819
0.00199393
0.00181904
0.00166813
0.00154411
0.00144472
0.00137168
0.00132197
0.00129113
0.00129173
0.00130537
0.00133962
0.00140554
0.00149786
0.00162851
0.00179672
0.00202237
0.00231783
0.00273676
0.00326407
0.00406348
0.00506657
0.00673961
0.00883499
0.012753
0.0184027
0.0304121
0.0321396
0.0189658
0.00247506
0.00174087
0.00248094
0.00335124
0.00402102
0.00450659
0.00473414
0.00478691
0.00471139
0.0045411
0.0043298
0.00410956
0.00390219
0.00372174
0.00357432
0.00347214
0.00340239
0.00340257
0.00342816
0.00349715
0.00363064
0.00381999
0.00406257
0.004378
0.00477175
0.00525379
0.00585661
0.00657408
0.00747558
0.00852052
0.00990704
0.0117146
0.0140236
0.0171823
0.0209048
0.0266212
0.0317065
0.0369286
0.0332342
0.0179204
0.00434339
0.00419621
0.0072879
0.00987729
0.0113366
0.0121794
0.0125506
0.0126268
0.0125419
0.0123418
0.0120806
0.0118613
0.0116913
0.0116425
0.0116824
0.0118101
0.0120605
0.0124648
0.0129661
0.0136093
0.0143594
0.0152812
0.0163463
0.0175908
0.0190494
0.0206759
0.0226387
0.0247159
0.0273342
0.0299522
0.0334035
0.0364479
0.0409024
0.0441524
0.0493542
0.0513103
0.0498666
0.0435031
0.0337134
0.0156823
0.00294189
0.00460525
0.00601445
0.00753262
0.00888506
0.0101169
0.0111173
0.0119871
0.0125823
0.0129933
0.0132343
0.0133662
0.0133609
0.0133187
0.0132258
0.0130993
0.0129571
0.012815
0.0126763
0.0125566
0.0124507
0.0123818
0.012325
0.0123255
0.0123448
0.0124004
0.0125158
0.0126302
0.0128682
0.0130402
0.0134031
0.0136301
0.0141371
0.0145155
0.0153523
0.0158623
0.0167282
0.0167762
0.0162015
0.0135393
)
;

boundaryField
{
    movingWall
    {
        type            epsilonWallFunction;
        value           nonuniform List<scalar> 
40
(
0.00294189
0.00460525
0.00601445
0.00753262
0.00888506
0.0101169
0.0111173
0.0119871
0.0125823
0.0129933
0.0132343
0.0133662
0.0133609
0.0133187
0.0132258
0.0130993
0.0129571
0.012815
0.0126763
0.0125566
0.0124507
0.0123818
0.012325
0.0123255
0.0123448
0.0124004
0.0125158
0.0126302
0.0128682
0.0130402
0.0134031
0.0136301
0.0141371
0.0145155
0.0153523
0.0158623
0.0167282
0.0167762
0.0162015
0.0135393
)
;
    }
    fixedWalls
    {
        type            epsilonWallFunction;
        value           nonuniform List<scalar> 
120
(
2.3025e-05
0.00011126
0.000334992
0.000777017
0.00148711
0.00251623
0.00384833
0.00528264
0.00654934
0.00748171
0.0081429
0.00852044
0.0085132
0.00840795
0.00815379
0.00771126
0.00718944
0.00657038
0.00595757
0.00525304
0.00468531
0.0042046
0.00377989
0.00339423
0.00303407
0.00269341
0.002363
0.00204188
0.00172316
0.00143965
0.00120093
0.000990018
0.000799155
0.000694392
0.000706681
0.000965474
0.00149874
0.00247506
0.00434339
0.00294189
3.75379e-05
6.52521e-05
5.38651e-05
3.87514e-05
4.76822e-05
9.50648e-05
0.000218768
0.000549689
0.00147415
0.00262079
0.00374165
0.00465303
0.005513
0.00631018
0.007093
0.00785493
0.00861453
0.00937021
0.0101225
0.0108761
0.0116223
0.0123678
0.0130995
0.0138216
0.0145204
0.015197
0.0158381
0.0164469
0.0170106
0.0175388
0.0180254
0.0184919
0.0189612
0.0193775
0.0195238
0.0195333
0.0189658
0.0179204
0.0156823
0.0135393
2.3025e-05
8.21747e-05
0.000162871
0.000169954
0.000158335
0.000162926
0.000206953
0.000339712
0.000496476
0.000669145
0.00106296
0.00139545
0.00157121
0.00174258
0.00200953
0.00235884
0.00270216
0.00307725
0.00345843
0.00387435
0.00431866
0.00481072
0.00535891
0.00598563
0.00672716
0.00740317
0.0080861
0.00867329
0.0091809
0.00945469
0.009563
0.00935953
0.00856567
0.00720575
0.00533595
0.00307356
0.00145465
0.000594009
0.000184498
3.75379e-05
)
;
    }
    frontAndBack
    {
        type            empty;
    }
}


// ************************************************************************* //
