/*--------------------------------*- C++ -*----------------------------------*\
  =========                 |
  \\      /  F ield         | OpenFOAM: The Open Source CFD Toolbox
   \\    /   O peration     | Website:  https://openfoam.org
    \\  /    A nd           | Version:  12
     \\/     M anipulation  |
\*---------------------------------------------------------------------------*/
FoamFile
{
    format      ascii;
    class       volScalarField;
    location    "6";
    object      k;
}
// * * * * * * * * * * * * * * * * * * * * * * * * * * * * * * * * * * * * * //

dimensions      [0 2 -2 0 0 0 0];

internalField   nonuniform List<scalar> 
1600
(
1.79958e-06
6.42146e-06
1.27265e-05
1.32773e-05
1.23687e-05
1.27275e-05
1.61698e-05
2.6551e-05
3.88119e-05
5.23258e-05
8.31217e-05
0.000109088
0.000122808
0.000136197
0.000157053
0.000184348
0.000211163
0.000240472
0.000270245
0.000302744
0.000337451
0.000375898
0.000418722
0.000467689
0.000525621
0.000578432
0.000631787
0.000677661
0.000717322
0.000738718
0.000747184
0.000731308
0.000669288
0.000563053
0.000416998
0.000240219
0.000113695
4.643e-05
1.44218e-05
2.93441e-06
8.69619e-06
4.20286e-05
8.21853e-05
9.0895e-05
9.00745e-05
9.64264e-05
0.000132659
0.000220008
0.000302767
0.000392117
0.00059324
0.0007104
0.00074526
0.000753179
0.00075761
0.000787847
0.000812937
0.0008503
0.000887067
0.000931342
0.00097894
0.00103144
0.00108682
0.00114146
0.00119401
0.00125605
0.00131851
0.00138405
0.00144035
0.00147285
0.00148421
0.00144741
0.00134119
0.00115144
0.000894531
0.000533247
0.000233444
9.50642e-05
3.27331e-05
5.1004e-06
2.61859e-05
0.000110246
0.000178051
0.000194298
0.000214223
0.000279658
0.000450587
0.000724879
0.000965002
0.00105993
0.00102989
0.000925578
0.000874958
0.000856169
0.000852019
0.000858243
0.000871079
0.000888718
0.000910474
0.000936331
0.000964389
0.000991946
0.0010214
0.00105291
0.0010876
0.00112452
0.00116322
0.00120292
0.0012413
0.00127634
0.00129487
0.00130136
0.00127801
0.00116247
0.000977542
0.000608495
0.000220126
7.85966e-05
2.95353e-05
4.21039e-06
6.07419e-05
0.000228559
0.000323799
0.000365598
0.000456592
0.000665354
0.000971893
0.00115352
0.00118809
0.00106504
0.000976515
0.000891837
0.000857308
0.00084441
0.0008408
0.000845084
0.000854923
0.000867669
0.000882733
0.000899338
0.000916747
0.000936853
0.000958009
0.000980407
0.00100398
0.00102867
0.00105465
0.00108161
0.0011078
0.00113009
0.00114446
0.00115057
0.0011506
0.00111922
0.00105443
0.000872301
0.000366947
8.75747e-05
2.30208e-05
3.0291e-06
0.000116255
0.000403326
0.000532802
0.000621699
0.000799739
0.00107334
0.00122458
0.00124365
0.00112946
0.000969106
0.000877181
0.000835258
0.000818247
0.000812599
0.000811812
0.000822712
0.000836614
0.000854107
0.000872604
0.000891702
0.000910442
0.000928797
0.000946646
0.000964922
0.000984349
0.00100561
0.00102918
0.00105443
0.00107942
0.00109945
0.00111116
0.00111629
0.00111671
0.00109848
0.00106649
0.000986746
0.000732826
0.00020432
3.41159e-05
3.72687e-06
0.000196709
0.000623477
0.000787277
0.000913542
0.00111314
0.00124351
0.00126319
0.00116728
0.000965274
0.000858749
0.000810721
0.000790957
0.000785056
0.000785233
0.00079929
0.000816192
0.000835173
0.000854536
0.000873616
0.000891571
0.000908527
0.000924688
0.00094088
0.000957804
0.000977229
0.000999878
0.00102663
0.00105753
0.00109239
0.00113054
0.00114972
0.00115425
0.00115084
0.0011289
0.00108335
0.00101806
0.000876683
0.000422554
7.66807e-05
7.42916e-06
0.000300844
0.000851895
0.00104516
0.00115963
0.00125233
0.00127221
0.00119302
0.000983887
0.000848146
0.00079086
0.000768133
0.000761556
0.000762305
0.000777276
0.000794741
0.000812117
0.000829651
0.000845148
0.000858138
0.000868951
0.000878432
0.000888519
0.0009012
0.000918085
0.000939619
0.000967279
0.00100184
0.00104359
0.00109156
0.00114288
0.00119712
0.00123399
0.00124164
0.00123203
0.00118184
0.00108004
0.000934067
0.00066575
0.000156459
1.70945e-05
0.000412969
0.00107887
0.00125411
0.00129869
0.00130394
0.00122083
0.00103
0.000853732
0.000778415
0.000749568
0.000741002
0.00074058
0.0007539
0.000770332
0.00078493
0.000797888
0.000805885
0.000809259
0.000810306
0.000810768
0.000813252
0.000819236
0.000829808
0.000845744
0.000868546
0.00089955
0.00094016
0.00099146
0.0010537
0.00112506
0.00120003
0.00127041
0.0013126
0.00131977
0.00130407
0.00122153
0.00104413
0.000764744
0.000267897
4.29541e-05
0.000511983
0.00126356
0.00139891
0.00138714
0.00127703
0.00110095
0.000882724
0.000777924
0.000736208
0.000722859
0.000720808
0.000729802
0.000744599
0.00075504
0.000759472
0.000760046
0.000753342
0.000746204
0.00073981
0.000736089
0.000734882
0.000737577
0.000746595
0.00076163
0.000784467
0.000816287
0.000858918
0.000914294
0.000984347
0.00106995
0.00116897
0.00127282
0.00135768
0.00139491
0.00139651
0.00134832
0.00120152
0.000924358
0.000485675
0.000115185
0.000584866
0.00139079
0.00149761
0.00139598
0.00120497
0.000959602
0.000798528
0.000732487
0.000709221
0.000703852
0.000707141
0.000717858
0.000722609
0.000722959
0.000715137
0.000704117
0.000690016
0.000677513
0.000666994
0.000660799
0.000658384
0.000659038
0.00066757
0.000681936
0.000704174
0.000735199
0.000776905
0.000831589
0.000902232
0.000991986
0.00110281
0.00123231
0.00136835
0.00146089
0.00148695
0.00146577
0.00133569
0.00104621
0.000591802
0.000204762
0.00063655
0.00147447
0.00155622
0.00137415
0.00109884
0.000858539
0.00074638
0.000702682
0.000689034
0.000686874
0.000691563
0.000693964
0.000690803
0.000679822
0.000663373
0.00064543
0.000627482
0.000612303
0.000600258
0.000593359
0.000590652
0.000590827
0.000599139
0.000613089
0.000634555
0.000664347
0.000704193
0.000756378
0.000824204
0.000911991
0.00102442
0.00116405
0.00132574
0.00148715
0.00156898
0.00157934
0.00149385
0.00121701
0.000734781
0.000292318
0.000666069
0.0015102
0.00156411
0.00132329
0.000996994
0.000795109
0.000711038
0.000679882
0.000670827
0.000669327
0.000669756
0.000664938
0.000652372
0.000633418
0.000611718
0.000590383
0.000570974
0.000555026
0.000542848
0.000535982
0.000533309
0.000533506
0.000541414
0.000554883
0.000575449
0.000603935
0.000641849
0.000691286
0.000755441
0.000839075
0.000948712
0.00109149
0.00127071
0.00147588
0.00162718
0.00166995
0.00161976
0.00135485
0.000851934
0.000363513
0.000665505
0.00150816
0.00155011
0.00125486
0.000915391
0.000751049
0.000684473
0.000660173
0.000652296
0.000649257
0.000644555
0.000632167
0.00061254
0.000588772
0.000564471
0.000541967
0.000522435
0.000506646
0.000494783
0.000488008
0.000485357
0.000485457
0.000492661
0.000505419
0.000524949
0.000552129
0.000588289
0.000635268
0.000695871
0.000774535
0.0008781
0.0010159
0.00119702
0.00142112
0.00165211
0.00176034
0.00175463
0.00151482
0.000973071
0.000430692
0.000657282
0.00149162
0.00151541
0.00118071
0.00085904
0.000718226
0.000662359
0.000641511
0.000633449
0.000627979
0.000617628
0.000599121
0.000574905
0.000548656
0.000523458
0.000500961
0.000481881
0.000466539
0.000454996
0.000448093
0.00044528
0.000445162
0.00045139
0.000463207
0.000481578
0.000507444
0.000542052
0.000587061
0.000644929
0.000719642
0.000817858
0.000950126
0.00113031
0.00136863
0.00165203
0.00183606
0.00186514
0.00165896
0.00109275
0.000492966
0.000637423
0.00145324
0.00146152
0.00111445
0.000817247
0.000691887
0.000642709
0.000623728
0.000615186
0.000606492
0.000591159
0.000568297
0.000541428
0.000514183
0.00048902
0.000467032
0.000448564
0.000433673
0.000422342
0.000415113
0.000411958
0.000411564
0.000416683
0.000427383
0.00044447
0.000468941
0.00050203
0.000545283
0.000600858
0.000672162
0.000765087
0.000889855
0.00106233
0.00130041
0.00160696
0.0018874
0.00197452
0.00180945
0.00121389
0.00055412
0.000602838
0.00140097
0.00140114
0.00105906
0.000784721
0.000669965
0.000625163
0.000607225
0.000597928
0.000586015
0.000566799
0.000541106
0.000512894
0.000485486
0.000460784
0.000439458
0.000421591
0.000407091
0.000395892
0.000388261
0.000384675
0.000383953
0.000387973
0.000397455
0.000413153
0.000436123
0.000467643
0.000509253
0.00056295
0.000631725
0.000720763
0.000839647
0.00100509
0.00124021
0.00155899
0.00190988
0.00206546
0.00195115
0.00133771
0.000613642
0.000562054
0.00134195
0.00133794
0.00101328
0.000758801
0.000651422
0.000609617
0.000592584
0.000582149
0.000567508
0.000545523
0.000518139
0.000489385
0.000462225
0.000438123
0.000417457
0.000400136
0.000385981
0.000374893
0.000366933
0.000362866
0.000361783
0.000364795
0.00037303
0.000387266
0.000408622
0.000438456
0.000478366
0.000530294
0.000596904
0.000682614
0.000795887
0.000953101
0.00118147
0.00150863
0.00191541
0.00215007
0.00209027
0.001462
0.000672982
0.000513667
0.00128445
0.00127707
0.000976728
0.000738598
0.000635929
0.0005962
0.000579827
0.000568242
0.000551542
0.00052775
0.000499468
0.000470626
0.000443876
0.000420377
0.000400312
0.000383481
0.000369645
0.000358672
0.000350578
0.000346003
0.000344533
0.00034666
0.000353682
0.000366432
0.000386094
0.000414125
0.00045224
0.000502447
0.000567257
0.000650491
0.000759405
0.000909049
0.00112798
0.0014549
0.00189667
0.0022214
0.00222299
0.00159396
0.000732016
0.000465774
0.00122504
0.00121965
0.000947705
0.000723081
0.000623198
0.000584769
0.000568831
0.000556355
0.000538313
0.000513506
0.000484875
0.000456194
0.000429888
0.000406929
0.000387387
0.000370998
0.000357479
0.000346665
0.000338544
0.000333532
0.000331655
0.000333031
0.00033892
0.000350213
0.000368153
0.000394298
0.000430501
0.000478929
0.000542085
0.000623357
0.000728845
0.000871858
0.00108062
0.00140108
0.00186196
0.00228763
0.0023501
0.00172697
0.000790787
0.000410702
0.0011738
0.00116861
0.000925625
0.00071287
0.00061331
0.000575271
0.000559539
0.000546498
0.000527771
0.000502594
0.000474008
0.000445622
0.000419733
0.000397226
0.000378124
0.000362126
0.000348916
0.000338297
0.000330225
0.000324904
0.000322598
0.000323348
0.000328217
0.000338132
0.000354394
0.00037864
0.000412851
0.000459429
0.000521011
0.000600746
0.000703713
0.000841252
0.00104013
0.00135125
0.00182251
0.00233288
0.00247464
0.00186814
0.000849656
0.000366323
0.00111838
0.0011235
0.00090903
0.000706555
0.000606053
0.000567281
0.000551559
0.000538382
0.000519624
0.000494642
0.000466425
0.000438461
0.000412963
0.000390813
0.000372049
0.000356371
0.000343442
0.000333029
0.000325051
0.000319593
0.000316877
0.000317141
0.000321061
0.000329711
0.000344411
0.000366847
0.000399044
0.000443718
0.000503742
0.000582228
0.000683413
0.000816551
0.00100609
0.00130583
0.00178199
0.00236446
0.00259567
0.00201211
0.000907948
0.000328743
0.00106134
0.00108125
0.000900382
0.000707146
0.000602283
0.000561228
0.00054492
0.000531818
0.000513537
0.000489249
0.000461727
0.000434213
0.000409037
0.000387168
0.000368687
0.000353293
0.000340629
0.000330425
0.000322554
0.000317055
0.000314146
0.000314231
0.000317415
0.000324993
0.000338261
0.000358755
0.000388895
0.00043168
0.000490158
0.000567586
0.000667628
0.000797393
0.00097828
0.00126519
0.0017419
0.0023796
0.00271371
0.00216395
0.000966187
0.000295541
0.00100507
0.00104278
0.00089659
0.000710724
0.00060304
0.000556766
0.000539103
0.000526283
0.000508999
0.000485875
0.000459279
0.000432732
0.00040816
0.000386598
0.000368286
0.000353022
0.000340474
0.000330356
0.000322508
0.000316937
0.000313857
0.000313764
0.000316414
0.000323285
0.00033566
0.000354764
0.000383038
0.000423596
0.000480241
0.000556752
0.000656183
0.000783506
0.000956524
0.00122937
0.0017037
0.00238532
0.0028288
0.00232017
0.00102335
0.00026539
0.000950697
0.00100848
0.000897054
0.000719276
0.000606515
0.000555351
0.000534831
0.00052179
0.000505638
0.00048406
0.000459168
0.000433304
0.000409045
0.000387629
0.000369393
0.0003542
0.000341749
0.000331758
0.000324059
0.000318638
0.000315676
0.000315573
0.000317794
0.00032384
0.000335339
0.000353563
0.000380803
0.000419799
0.000474979
0.000550636
0.000649876
0.000775685
0.000940722
0.00119808
0.00166345
0.0023859
0.00293918
0.00248305
0.00107976
0.000237232
0.000897787
0.000978132
0.000899232
0.000732766
0.000614402
0.000556579
0.000531291
0.000517829
0.000502962
0.000483263
0.000459834
0.000435073
0.000411471
0.000390375
0.000372303
0.000357244
0.000344958
0.000335176
0.000327705
0.000322491
0.000319689
0.000319728
0.000321809
0.000327445
0.00033828
0.000355343
0.000380977
0.000418813
0.000473106
0.000548265
0.000647429
0.000772529
0.000931845
0.00117242
0.00162363
0.00237494
0.00304512
0.00265067
0.00113435
0.000210596
0.000846546
0.000951073
0.000898922
0.000753615
0.000628804
0.000560873
0.000531319
0.000514763
0.000500671
0.000482943
0.000461424
0.000438357
0.000415768
0.000395199
0.00037738
0.000362471
0.000350334
0.000340741
0.000333503
0.000328537
0.000326034
0.000326279
0.000328487
0.000334099
0.000344667
0.000361151
0.0003858
0.000422007
0.000474455
0.000548387
0.000647406
0.000772223
0.000928283
0.00115209
0.0015848
0.00235726
0.00314569
0.00282431
0.0011872
0.000184761
0.000794771
0.000926832
0.00089675
0.000778677
0.000650124
0.00057049
0.000533286
0.000514114
0.000499109
0.000483013
0.000463572
0.000442348
0.000421114
0.000401389
0.000384063
0.00036947
0.000357606
0.000348313
0.000341427
0.000336842
0.000334877
0.000335412
0.000337952
0.000343893
0.00035451
0.000370775
0.00039486
0.000430152
0.000481534
0.000554693
0.000653625
0.000777956
0.000928121
0.00113708
0.00154797
0.00233389
0.00323762
0.00299879
0.00123728
0.000159649
0.000742657
0.000902799
0.000891516
0.000807086
0.000677302
0.000587531
0.000539289
0.00051551
0.000499401
0.00048357
0.00046589
0.000446627
0.000427062
0.000408558
0.000392071
0.000378081
0.000366718
0.00035792
0.00035157
0.000347532
0.00034639
0.000347299
0.000350354
0.000356947
0.000367888
0.000384244
0.000408111
0.000442818
0.000493285
0.000565504
0.000663927
0.000787837
0.000934358
0.00112713
0.00151286
0.00230209
0.00332409
0.00317494
0.00128484
0.000134723
0.00068633
0.000879752
0.000881272
0.000830556
0.000712697
0.000613384
0.000552284
0.000520525
0.000501445
0.000485224
0.000468601
0.000451071
0.000433292
0.000416319
0.000401046
0.000388022
0.000377482
0.000369458
0.000363882
0.000360639
0.000360564
0.000361944
0.00036572
0.000373255
0.000384741
0.000401455
0.000425422
0.000459895
0.000509713
0.000580939
0.000678306
0.000800986
0.000943505
0.00112106
0.0014793
0.00225869
0.00340114
0.00334474
0.00132888
0.000112548
0.000633091
0.000855922
0.00087182
0.000842194
0.0007519
0.000648741
0.000576107
0.000532399
0.000507531
0.000489337
0.000472599
0.000456114
0.00043987
0.000424493
0.000410682
0.000398949
0.00038956
0.000382633
0.000378033
0.000376172
0.000376769
0.000379026
0.000384017
0.000392435
0.000404671
0.000421976
0.00044632
0.000480872
0.000530251
0.000600343
0.000695888
0.000816219
0.000954306
0.0011168
0.00144605
0.00220692
0.003466
0.00350517
0.00137014
9.38775e-05
0.000574919
0.000836311
0.000862461
0.000846386
0.00078795
0.000691618
0.000611846
0.00055654
0.00052164
0.000498708
0.000480146
0.000463343
0.000447772
0.00043356
0.000421089
0.000410718
0.000402644
0.000397028
0.000393559
0.000393415
0.000394653
0.000397938
0.000404327
0.00041374
0.000426862
0.000444938
0.000469872
0.000504737
0.00055377
0.000622449
0.000715188
0.000831678
0.00096453
0.00111311
0.00141457
0.00215026
0.00351253
0.00364557
0.00140815
7.73805e-05
0.000505112
0.000826824
0.000857234
0.000847867
0.000813153
0.000737349
0.000659264
0.000596554
0.000550873
0.000518718
0.000495475
0.000476225
0.000459694
0.00044548
0.000433578
0.000424077
0.000417089
0.000412476
0.000410598
0.000411247
0.000413449
0.000418141
0.00042563
0.00043606
0.000450118
0.000469062
0.000494691
0.000529952
0.000578514
0.000645287
0.000734048
0.000845074
0.000971977
0.00110901
0.00138922
0.00209664
0.00353935
0.00375228
0.00144461
6.2452e-05
0.000425237
0.000806157
0.000854818
0.000850798
0.000831868
0.000783181
0.000714868
0.000651944
0.000599612
0.000558507
0.000526626
0.000501603
0.000481407
0.000464935
0.000451864
0.000441866
0.00043499
0.00043053
0.000429598
0.000430626
0.000433437
0.000439089
0.000447359
0.0004586
0.000473442
0.000493167
0.000519375
0.000554853
0.000602504
0.000666676
0.000750316
0.000854615
0.000975695
0.00110685
0.00137797
0.00206863
0.00355318
0.00380321
0.00148127
5.42613e-05
0.000358242
0.00075882
0.00084628
0.000851582
0.000846171
0.000825812
0.000780507
0.000724969
0.000672293
0.000625559
0.000585662
0.000552401
0.00052504
0.000502955
0.000485612
0.000472429
0.000463259
0.000457245
0.000454858
0.000455502
0.00045788
0.000463028
0.000471199
0.000482543
0.000497614
0.00051768
0.000544014
0.000579231
0.000625349
0.000686377
0.000764552
0.000862523
0.000980668
0.00111209
0.00137867
0.00205937
0.00356971
0.00381907
0.00151378
5.52234e-05
0.000333007
0.0006788
0.000821318
0.000853571
0.000864868
0.000862574
0.000848135
0.000814837
0.000769485
0.000723226
0.000679229
0.000639305
0.000604306
0.000574585
0.000550107
0.000530586
0.000515702
0.000505026
0.000498042
0.0004949
0.000495469
0.000498143
0.000504204
0.000514397
0.000528806
0.000548563
0.000574577
0.000609318
0.000654088
0.000712983
0.00078831
0.000884858
0.00100948
0.001164
0.00145736
0.00213564
0.00360902
0.00379594
0.00152519
7.54597e-05
0.000345786
0.000598989
0.000770157
0.000859951
0.000903834
0.000925945
0.000931169
0.000923472
0.000901656
0.000863898
0.000821334
0.000778098
0.000736563
0.000698363
0.000664435
0.0006353
0.000611183
0.000592044
0.000577602
0.000568033
0.000563195
0.000563902
0.000567352
0.000575208
0.000588926
0.000609044
0.000636412
0.000673327
0.000721326
0.000784902
0.000868562
0.000978986
0.00113293
0.00134099
0.0016914
0.00237467
0.00368966
0.00369381
0.00152591
0.000117168
0.000417145
0.000610003
0.000788017
0.000910332
0.00099902
0.00105601
0.00108422
0.00108806
0.0010804
0.00105913
0.00102147
0.000977223
0.00093047
0.00088493
0.000841628
0.000804622
0.000774464
0.00074979
0.000732256
0.000720226
0.000714093
0.000715472
0.000721045
0.00073318
0.000754385
0.000783701
0.000823467
0.000876658
0.000946502
0.00103822
0.00116006
0.00131959
0.00154376
0.001834
0.00228734
0.00292536
0.00383422
0.00360083
0.00148149
0.000193508
0.000582862
0.000757779
0.000961961
0.00112589
0.00125804
0.00134772
0.00139869
0.0014087
0.00140196
0.00138337
0.00134882
0.00130907
0.00126746
0.00122812
0.00119443
0.00116472
0.00114331
0.00112692
0.00112426
0.00112808
0.00113916
0.00116161
0.00119659
0.0012417
0.00130148
0.00137559
0.00146713
0.0015797
0.0017113
0.00188236
0.00208695
0.00235362
0.00267047
0.00306668
0.00355946
0.00399654
0.00415954
0.00349178
0.00139971
0.000339513
0.000990422
0.00137941
0.00174694
0.0019717
0.00211936
0.00220679
0.0022574
0.00225733
0.00224966
0.00223304
0.0022118
0.00219416
0.00217852
0.00217462
0.00217948
0.00219218
0.00221901
0.00225476
0.00230678
0.00236945
0.00244981
0.00254129
0.00265217
0.00277746
0.00292128
0.00308616
0.00326487
0.00347799
0.00369352
0.00396518
0.00420091
0.00454872
0.00476214
0.005169
0.00520715
0.00504422
0.00440108
0.00306281
0.00122481
0.000229958
0.000359958
0.000470088
0.000588716
0.000694395
0.000790667
0.000868846
0.000936847
0.000983354
0.00101547
0.0010343
0.00104459
0.00104417
0.00104086
0.00103357
0.00102366
0.00101252
0.0010014
0.000990524
0.000981156
0.000972829
0.000967433
0.000962943
0.000962962
0.000964703
0.000968134
0.0009781
0.000986323
0.00100554
0.00101831
0.00104721
0.00106444
0.00110449
0.00113355
0.00119938
0.00123903
0.00130672
0.0013104
0.00126554
0.00105763
)
;

boundaryField
{
    movingWall
    {
        type            kqRWallFunction;
        value           nonuniform List<scalar> 
40
(
0.000229958
0.000359958
0.000470088
0.000588716
0.000694395
0.000790667
0.000868846
0.000936847
0.000983354
0.00101547
0.0010343
0.00104459
0.00104417
0.00104086
0.00103357
0.00102366
0.00101252
0.0010014
0.000990524
0.000981156
0.000972829
0.000967433
0.000962943
0.000962962
0.000964703
0.000968134
0.0009781
0.000986323
0.00100554
0.00101831
0.00104721
0.00106444
0.00110449
0.00113355
0.00119938
0.00123903
0.00130672
0.0013104
0.00126554
0.00105763
)
;
    }
    fixedWalls
    {
        type            kqRWallFunction;
        value           nonuniform List<scalar> 
120
(
1.79958e-06
8.69619e-06
2.61859e-05
6.07419e-05
0.000116255
0.000196709
0.000300844
0.000412969
0.000511983
0.000584866
0.00063655
0.000666069
0.000665505
0.000657282
0.000637423
0.000602838
0.000562054
0.000513667
0.000465774
0.000410702
0.000366323
0.000328743
0.000295541
0.00026539
0.000237232
0.000210596
0.000184761
0.000159649
0.000134723
0.000112548
9.38775e-05
7.73805e-05
6.2452e-05
5.42613e-05
5.52234e-05
7.54597e-05
0.000117168
0.000193508
0.000339513
0.000229958
2.93441e-06
5.1004e-06
4.21039e-06
3.0291e-06
3.72687e-06
7.42916e-06
1.70945e-05
4.29541e-05
0.000115185
0.000204762
0.000292318
0.000363513
0.000430692
0.000492966
0.00055412
0.000613642
0.000672982
0.000732016
0.000790787
0.000849656
0.000907948
0.000966187
0.00102335
0.00107976
0.00113435
0.0011872
0.00123728
0.00128484
0.00132888
0.00137014
0.00140815
0.00144461
0.00148127
0.00151378
0.00152519
0.00152591
0.00148149
0.00139971
0.00122481
0.00105763
1.79958e-06
6.42146e-06
1.27265e-05
1.32773e-05
1.23687e-05
1.27275e-05
1.61698e-05
2.6551e-05
3.88119e-05
5.23258e-05
8.31217e-05
0.000109088
0.000122808
0.000136197
0.000157053
0.000184348
0.000211163
0.000240472
0.000270245
0.000302744
0.000337451
0.000375898
0.000418722
0.000467689
0.000525621
0.000578432
0.000631787
0.000677661
0.000717322
0.000738718
0.000747184
0.000731308
0.000669288
0.000563053
0.000416998
0.000240219
0.000113695
4.643e-05
1.44218e-05
2.93441e-06
)
;
    }
    frontAndBack
    {
        type            empty;
    }
}


// ************************************************************************* //
