/*--------------------------------*- C++ -*----------------------------------*\
  =========                 |
  \\      /  F ield         | OpenFOAM: The Open Source CFD Toolbox
   \\    /   O peration     | Website:  https://openfoam.org
    \\  /    A nd           | Version:  12
     \\/     M anipulation  |
\*---------------------------------------------------------------------------*/
FoamFile
{
    format      ascii;
    class       volScalarField;
    location    "6";
    object      nut;
}
// * * * * * * * * * * * * * * * * * * * * * * * * * * * * * * * * * * * * * //

dimensions      [0 2 -1 0 0 0 0];

internalField   nonuniform List<scalar> 
1600
(
1.26585e-08
4.51619e-08
8.94996e-08
9.3353e-08
8.69584e-08
8.94822e-08
1.13705e-07
1.86763e-07
2.7307e-07
3.6826e-07
5.84997e-07
7.67506e-07
8.63899e-07
9.58045e-07
1.10469e-06
1.29664e-06
1.48513e-06
1.69124e-06
1.90055e-06
2.12909e-06
2.37309e-06
2.64346e-06
2.94455e-06
3.28888e-06
3.6962e-06
4.06752e-06
4.44267e-06
4.76524e-06
5.04413e-06
5.19461e-06
5.25415e-06
5.14267e-06
4.7066e-06
3.95969e-06
2.93292e-06
1.68973e-06
7.99769e-07
3.26622e-07
1.01459e-07
2.0645e-08
6.11733e-08
1.12469e-06
3.38972e-06
4.24057e-06
4.19894e-06
4.03087e-06
4.48763e-06
5.93356e-06
6.30812e-06
6.61009e-06
8.38436e-06
9.45807e-06
1.00444e-05
1.07756e-05
1.16367e-05
1.3012e-05
1.42052e-05
1.56865e-05
1.70913e-05
1.84712e-05
1.98104e-05
2.10851e-05
2.2365e-05
2.33943e-05
2.40766e-05
2.48362e-05
2.54289e-05
2.59015e-05
2.60681e-05
2.56927e-05
2.54193e-05
2.40662e-05
2.21227e-05
1.88771e-05
1.54743e-05
9.71846e-06
4.57507e-06
1.78919e-06
6.01807e-07
3.58803e-08
1.84223e-07
3.03181e-06
7.56756e-06
9.29195e-06
9.93694e-06
1.03479e-05
1.26368e-05
1.61021e-05
1.70902e-05
1.74106e-05
1.63323e-05
1.54149e-05
1.50402e-05
1.61983e-05
1.77395e-05
1.9401e-05
2.13478e-05
2.32346e-05
2.50456e-05
2.6794e-05
2.85032e-05
2.97857e-05
3.05987e-05
3.11453e-05
3.15181e-05
3.17243e-05
3.17073e-05
3.14423e-05
3.08518e-05
2.98347e-05
2.79089e-05
2.59832e-05
2.41691e-05
2.01677e-05
1.64232e-05
9.53473e-06
3.96893e-06
1.90618e-06
7.74937e-07
2.96196e-08
4.27355e-07
6.59706e-06
1.31069e-05
1.5406e-05
1.65685e-05
1.83597e-05
2.06849e-05
2.11319e-05
2.08406e-05
1.81615e-05
1.72933e-05
1.85594e-05
2.01988e-05
2.30212e-05
2.49213e-05
2.73907e-05
2.93784e-05
3.11142e-05
3.25678e-05
3.38666e-05
3.46299e-05
3.52935e-05
3.56755e-05
3.58863e-05
3.58822e-05
3.56841e-05
3.52592e-05
3.45977e-05
3.36064e-05
3.21707e-05
3.01967e-05
2.77756e-05
2.49102e-05
2.12117e-05
1.81035e-05
1.34701e-05
4.70654e-06
1.56779e-06
5.42202e-07
2.131e-08
8.17945e-07
1.19589e-05
1.94637e-05
2.10017e-05
2.19142e-05
2.37236e-05
2.39444e-05
2.34535e-05
2.08189e-05
1.95713e-05
2.15817e-05
2.36385e-05
2.64567e-05
2.92342e-05
3.10871e-05
3.32842e-05
3.49946e-05
3.66223e-05
3.78189e-05
3.87139e-05
3.93368e-05
3.97735e-05
3.9974e-05
4.00134e-05
3.98822e-05
3.95861e-05
3.90811e-05
3.82974e-05
3.71479e-05
3.54313e-05
3.31326e-05
3.056e-05
2.78629e-05
2.41779e-05
1.97838e-05
1.59471e-05
9.84292e-06
2.64523e-06
5.91734e-07
2.62166e-08
1.38401e-06
1.79206e-05
2.50888e-05
2.57031e-05
2.62528e-05
2.60938e-05
2.55479e-05
2.30929e-05
2.1322e-05
2.35293e-05
2.60735e-05
2.89209e-05
3.17969e-05
3.37021e-05
3.58465e-05
3.76935e-05
3.93671e-05
4.05112e-05
4.15501e-05
4.22987e-05
4.28669e-05
4.32015e-05
4.33305e-05
4.32562e-05
4.30648e-05
4.27462e-05
4.23097e-05
4.17286e-05
4.09923e-05
4.01219e-05
3.77567e-05
3.4564e-05
3.13924e-05
2.76505e-05
2.30387e-05
1.80791e-05
1.28028e-05
4.25972e-06
9.57288e-07
5.2252e-08
2.11667e-06
2.25861e-05
2.96273e-05
2.91707e-05
2.81095e-05
2.74517e-05
2.51151e-05
2.27851e-05
2.4789e-05
2.77013e-05
3.06121e-05
3.3421e-05
3.53421e-05
3.75786e-05
3.95436e-05
4.12973e-05
4.27044e-05
4.39043e-05
4.48167e-05
4.54054e-05
4.57204e-05
4.58099e-05
4.58007e-05
4.57303e-05
4.5543e-05
4.52759e-05
4.49282e-05
4.4488e-05
4.39072e-05
4.30897e-05
4.22416e-05
4.0299e-05
3.69228e-05
3.34232e-05
2.83511e-05
2.16446e-05
1.52366e-05
7.95e-06
1.56161e-06
1.20218e-07
2.90553e-06
2.66855e-05
3.26205e-05
3.10622e-05
2.99413e-05
2.71366e-05
2.44433e-05
2.55543e-05
2.85117e-05
3.16482e-05
3.44106e-05
3.64071e-05
3.8761e-05
4.09693e-05
4.28218e-05
4.45679e-05
4.57978e-05
4.66517e-05
4.71462e-05
4.73699e-05
4.76759e-05
4.77942e-05
4.78566e-05
4.77799e-05
4.76033e-05
4.73359e-05
4.70046e-05
4.66227e-05
4.61835e-05
4.56208e-05
4.4773e-05
4.35542e-05
4.10872e-05
3.74951e-05
3.42257e-05
2.80576e-05
1.92275e-05
1.01044e-05
2.10377e-06
3.02089e-07
3.60211e-06
2.94472e-05
3.44815e-05
3.32141e-05
2.98154e-05
2.65967e-05
2.56838e-05
2.8679e-05
3.19684e-05
3.48972e-05
3.71293e-05
3.94211e-05
4.1873e-05
4.39077e-05
4.54683e-05
4.68575e-05
4.7526e-05
4.81909e-05
4.87659e-05
4.92565e-05
4.95228e-05
4.99245e-05
5.00457e-05
5.00103e-05
4.98245e-05
4.94855e-05
4.90404e-05
4.85333e-05
4.80223e-05
4.75312e-05
4.6997e-05
4.61838e-05
4.42854e-05
4.07625e-05
3.71236e-05
3.30926e-05
2.49586e-05
1.44089e-05
4.56455e-06
8.10016e-07
4.11485e-06
3.10705e-05
3.63432e-05
3.38075e-05
2.94696e-05
2.6518e-05
2.83716e-05
3.17265e-05
3.4927e-05
3.75222e-05
3.96723e-05
4.21604e-05
4.40709e-05
4.58761e-05
4.70802e-05
4.81819e-05
4.89675e-05
4.9845e-05
5.0641e-05
5.14753e-05
5.19924e-05
5.23665e-05
5.28409e-05
5.28217e-05
5.26555e-05
5.22095e-05
5.15605e-05
5.0757e-05
4.99034e-05
4.91138e-05
4.84696e-05
4.79295e-05
4.72139e-05
4.43584e-05
4.00042e-05
3.66511e-05
2.9557e-05
1.78657e-05
6.06082e-06
1.43982e-06
4.47846e-06
3.22199e-05
3.77915e-05
3.39204e-05
2.90685e-05
2.81001e-05
3.0992e-05
3.43796e-05
3.7325e-05
3.95703e-05
4.18068e-05
4.38634e-05
4.5744e-05
4.72119e-05
4.83745e-05
4.95293e-05
5.06113e-05
5.17906e-05
5.29179e-05
5.41334e-05
5.49077e-05
5.53768e-05
5.61955e-05
5.62556e-05
5.61353e-05
5.56262e-05
5.47935e-05
5.36733e-05
5.23751e-05
5.10603e-05
4.99091e-05
4.90251e-05
4.82871e-05
4.71782e-05
4.30381e-05
3.97818e-05
3.44925e-05
2.27179e-05
8.67226e-06
2.05538e-06
4.68617e-06
3.26089e-05
3.84317e-05
3.40395e-05
2.92089e-05
3.01302e-05
3.32959e-05
3.65252e-05
3.91804e-05
4.12101e-05
4.33223e-05
4.52903e-05
4.69524e-05
4.83362e-05
4.96474e-05
5.1047e-05
5.24991e-05
5.4032e-05
5.55197e-05
5.7097e-05
5.81136e-05
5.87296e-05
5.98189e-05
6.00043e-05
5.99508e-05
5.94461e-05
5.85176e-05
5.71745e-05
5.54977e-05
5.36582e-05
5.19199e-05
5.05673e-05
4.97341e-05
4.91772e-05
4.57896e-05
4.16556e-05
3.77014e-05
2.63571e-05
1.09447e-05
2.55591e-06
4.68223e-06
3.256e-05
3.86944e-05
3.39722e-05
3.0044e-05
3.19612e-05
3.52062e-05
3.82017e-05
4.04954e-05
4.24364e-05
4.45234e-05
4.6354e-05
4.79383e-05
4.94245e-05
5.09985e-05
5.2728e-05
5.45594e-05
5.64409e-05
5.82525e-05
6.0123e-05
6.13594e-05
6.20875e-05
6.33586e-05
6.36701e-05
6.36851e-05
6.32339e-05
6.23049e-05
6.08698e-05
5.89464e-05
5.66476e-05
5.42311e-05
5.20808e-05
5.05402e-05
4.95836e-05
4.79653e-05
4.35901e-05
4.06356e-05
3.03511e-05
1.34979e-05
3.02822e-06
4.6244e-06
3.22971e-05
3.89553e-05
3.38716e-05
3.13157e-05
3.35157e-05
3.66898e-05
3.94401e-05
4.144e-05
4.3418e-05
4.54384e-05
4.71974e-05
4.88333e-05
5.05279e-05
5.24106e-05
5.44822e-05
5.66592e-05
5.88445e-05
6.09176e-05
6.29743e-05
6.43893e-05
6.51951e-05
6.65457e-05
6.69524e-05
6.70185e-05
6.66419e-05
6.57925e-05
6.44133e-05
6.24555e-05
5.99409e-05
5.70596e-05
5.42428e-05
5.20811e-05
5.09736e-05
5.05557e-05
4.59127e-05
4.23905e-05
3.34114e-05
1.58263e-05
3.46606e-06
4.48475e-06
3.16981e-05
3.87417e-05
3.40135e-05
3.23759e-05
3.47379e-05
3.779e-05
4.02988e-05
4.21866e-05
4.41843e-05
4.61471e-05
4.79114e-05
4.96801e-05
5.16224e-05
5.38085e-05
5.61896e-05
5.8655e-05
6.10828e-05
6.33499e-05
6.54966e-05
6.7036e-05
6.78965e-05
6.92326e-05
6.96861e-05
6.97687e-05
6.94522e-05
6.87125e-05
6.74813e-05
6.56531e-05
6.31367e-05
5.997e-05
5.64766e-05
5.33232e-05
5.12637e-05
5.05676e-05
4.79567e-05
4.39543e-05
3.6384e-05
1.811e-05
3.89601e-06
4.24149e-06
3.0826e-05
3.83358e-05
3.42574e-05
3.32053e-05
3.56469e-05
3.85792e-05
4.08855e-05
4.27772e-05
4.47754e-05
4.67097e-05
4.85334e-05
5.04667e-05
5.26489e-05
5.50999e-05
5.77356e-05
6.04255e-05
6.30343e-05
6.54376e-05
6.76025e-05
6.92235e-05
7.01131e-05
7.1364e-05
7.18158e-05
7.18766e-05
7.15858e-05
7.0947e-05
6.99045e-05
6.83276e-05
6.60388e-05
6.29232e-05
5.91374e-05
5.53062e-05
5.23748e-05
5.08632e-05
4.92045e-05
4.4945e-05
3.86145e-05
2.02978e-05
4.31449e-06
3.95461e-06
2.97989e-05
3.77322e-05
3.44841e-05
3.38171e-05
3.62826e-05
3.91169e-05
4.13228e-05
4.3234e-05
4.52258e-05
4.71579e-05
4.9064e-05
5.11555e-05
5.35396e-05
5.61989e-05
5.90258e-05
6.18767e-05
6.46095e-05
6.70998e-05
6.9252e-05
7.09162e-05
7.18172e-05
7.29311e-05
7.33425e-05
7.33518e-05
7.30509e-05
7.24827e-05
7.16222e-05
7.03402e-05
6.83979e-05
6.55268e-05
6.16536e-05
5.72566e-05
5.34931e-05
5.14624e-05
5.06538e-05
4.59959e-05
4.05026e-05
2.23635e-05
4.73171e-06
3.61423e-06
2.87615e-05
3.70115e-05
3.4668e-05
3.42336e-05
3.66688e-05
3.94642e-05
4.16419e-05
4.35762e-05
4.55591e-05
4.75023e-05
4.94861e-05
5.17028e-05
5.4234e-05
5.7037e-05
5.99895e-05
6.29402e-05
6.5742e-05
6.82667e-05
7.04123e-05
7.20834e-05
7.30037e-05
7.39368e-05
7.42833e-05
7.42241e-05
7.38892e-05
7.33601e-05
7.26565e-05
7.1678e-05
7.01645e-05
6.77351e-05
6.40736e-05
5.93662e-05
5.47416e-05
5.18664e-05
5.1187e-05
4.69245e-05
4.19665e-05
2.43873e-05
5.14676e-06
3.27736e-06
2.76104e-05
3.61644e-05
3.47351e-05
3.44858e-05
3.69061e-05
3.96593e-05
4.18484e-05
4.38085e-05
4.57821e-05
4.77351e-05
4.97744e-05
5.20721e-05
5.46881e-05
5.75667e-05
6.05796e-05
6.35722e-05
6.63936e-05
6.8913e-05
7.10283e-05
7.26797e-05
7.36361e-05
7.43911e-05
7.46585e-05
7.45215e-05
7.4146e-05
7.36348e-05
7.30586e-05
7.23645e-05
7.12985e-05
6.94157e-05
6.61892e-05
6.14622e-05
5.61513e-05
5.22824e-05
5.11791e-05
4.80989e-05
4.31717e-05
2.6227e-05
5.55997e-06
2.88992e-06
2.66635e-05
3.52801e-05
3.47468e-05
3.46276e-05
3.68968e-05
3.97163e-05
4.19562e-05
4.39419e-05
4.59023e-05
4.78559e-05
4.99166e-05
5.22316e-05
5.48629e-05
5.77523e-05
6.07668e-05
6.37477e-05
6.65415e-05
6.9017e-05
7.10747e-05
7.26698e-05
7.36456e-05
7.4251e-05
7.44328e-05
7.42651e-05
7.3865e-05
7.33639e-05
7.28925e-05
7.24621e-05
7.18345e-05
7.05515e-05
6.79238e-05
6.34445e-05
5.76644e-05
5.27887e-05
5.08857e-05
4.89421e-05
4.42571e-05
2.80143e-05
5.97387e-06
2.57769e-06
2.53338e-05
3.43186e-05
3.45871e-05
3.46192e-05
3.6927e-05
3.96083e-05
4.19331e-05
4.39544e-05
4.59038e-05
4.78342e-05
4.98742e-05
5.21913e-05
5.48009e-05
5.76367e-05
6.05739e-05
6.34643e-05
6.61634e-05
6.85501e-05
7.05366e-05
7.20515e-05
7.30046e-05
7.34046e-05
7.3417e-05
7.31762e-05
7.27916e-05
7.2456e-05
7.22239e-05
7.20479e-05
7.18333e-05
7.11618e-05
6.92302e-05
6.52253e-05
5.92377e-05
5.34778e-05
5.07096e-05
4.95251e-05
4.52381e-05
2.96181e-05
6.38371e-06
2.3133e-06
2.38443e-05
3.29525e-05
3.46781e-05
3.45833e-05
3.65058e-05
3.94544e-05
4.18096e-05
4.38693e-05
4.57979e-05
4.77114e-05
4.97244e-05
5.18491e-05
5.42452e-05
5.68879e-05
5.96648e-05
6.24332e-05
6.5056e-05
6.74121e-05
6.93841e-05
7.08974e-05
7.18972e-05
7.23284e-05
7.23093e-05
7.19674e-05
7.14137e-05
7.09908e-05
7.08244e-05
7.10264e-05
7.13718e-05
7.12992e-05
7.00988e-05
6.67173e-05
6.07361e-05
5.42327e-05
5.06723e-05
4.97961e-05
4.61471e-05
3.11726e-05
6.79318e-06
2.07969e-06
2.22221e-05
3.1365e-05
3.44065e-05
3.44988e-05
3.63177e-05
3.89153e-05
4.15245e-05
4.36177e-05
4.55566e-05
4.73778e-05
4.91712e-05
5.13085e-05
5.36863e-05
5.62605e-05
5.8942e-05
6.16065e-05
6.41171e-05
6.63432e-05
6.81787e-05
6.954e-05
7.03852e-05
7.07839e-05
7.08359e-05
7.07282e-05
7.03615e-05
6.986e-05
6.95193e-05
6.96829e-05
7.02714e-05
7.08444e-05
7.05089e-05
6.79016e-05
6.20982e-05
5.50043e-05
5.07645e-05
4.98901e-05
4.69185e-05
3.26443e-05
7.19507e-06
1.86754e-06
2.05285e-05
2.96236e-05
3.4203e-05
3.43741e-05
3.59951e-05
3.85027e-05
4.10524e-05
4.33029e-05
4.51776e-05
4.69257e-05
4.88107e-05
5.07995e-05
5.29829e-05
5.53354e-05
5.77864e-05
6.02227e-05
6.25189e-05
6.4558e-05
6.62518e-05
6.75416e-05
6.84057e-05
6.87962e-05
6.88282e-05
6.87367e-05
6.84773e-05
6.8318e-05
6.84359e-05
6.87252e-05
6.9376e-05
7.02938e-05
7.05722e-05
6.87768e-05
6.32602e-05
5.56565e-05
5.07518e-05
4.99062e-05
4.7596e-05
3.40771e-05
7.59166e-06
1.66941e-06
1.87889e-05
2.78016e-05
3.37393e-05
3.41594e-05
3.54752e-05
3.80351e-05
4.03701e-05
4.26403e-05
4.46243e-05
4.64435e-05
4.81793e-05
4.99293e-05
5.18469e-05
5.39362e-05
5.61321e-05
5.83375e-05
6.04418e-05
6.23394e-05
6.39442e-05
6.51998e-05
6.60903e-05
6.65041e-05
6.65658e-05
6.6545e-05
6.63805e-05
6.6248e-05
6.64045e-05
6.71511e-05
6.84745e-05
6.98812e-05
7.05217e-05
6.92499e-05
6.43814e-05
5.62103e-05
5.0662e-05
4.97866e-05
4.81565e-05
3.54422e-05
7.97548e-06
1.48198e-06
1.70404e-05
2.60586e-05
3.26351e-05
3.4171e-05
3.50518e-05
3.73183e-05
3.98865e-05
4.19562e-05
4.39757e-05
4.57378e-05
4.73558e-05
4.898e-05
5.0682e-05
5.25069e-05
5.44276e-05
5.63733e-05
5.82529e-05
5.99742e-05
6.14584e-05
6.26523e-05
6.3579e-05
6.39963e-05
6.4146e-05
6.42624e-05
6.42504e-05
6.42682e-05
6.45721e-05
6.53885e-05
6.68233e-05
6.86469e-05
7.0022e-05
6.94241e-05
6.5063e-05
5.66187e-05
5.03951e-05
4.94614e-05
4.86891e-05
3.67552e-05
8.34706e-06
1.30017e-06
1.52912e-05
2.43222e-05
3.10937e-05
3.40384e-05
3.47262e-05
3.65022e-05
3.91283e-05
4.13429e-05
4.32065e-05
4.49302e-05
4.64546e-05
4.79293e-05
4.94267e-05
5.09981e-05
5.26444e-05
5.4324e-05
5.59697e-05
5.75064e-05
5.88657e-05
5.99924e-05
6.09879e-05
6.13908e-05
6.16624e-05
6.19711e-05
6.21341e-05
6.2343e-05
6.28336e-05
6.38384e-05
6.55034e-05
6.76311e-05
6.93875e-05
6.93822e-05
6.54055e-05
5.68391e-05
5.00144e-05
4.89603e-05
4.90881e-05
3.79489e-05
8.69919e-06
1.12343e-06
1.35755e-05
2.25125e-05
2.93286e-05
3.38469e-05
3.43735e-05
3.57687e-05
3.8054e-05
4.05022e-05
4.2444e-05
4.4044e-05
4.5471e-05
4.6809e-05
4.81231e-05
4.94662e-05
5.08584e-05
5.22843e-05
5.37018e-05
5.50558e-05
5.62923e-05
5.73456e-05
5.84351e-05
5.8807e-05
5.92191e-05
5.97544e-05
6.00988e-05
6.05198e-05
6.12091e-05
6.23871e-05
6.42077e-05
6.65309e-05
6.85469e-05
6.88884e-05
6.56653e-05
5.66693e-05
4.94835e-05
4.82555e-05
4.94165e-05
3.90862e-05
9.03355e-06
9.47988e-07
1.19148e-05
2.10282e-05
2.70093e-05
3.29585e-05
3.42833e-05
3.52356e-05
3.7013e-05
3.93622e-05
4.14452e-05
4.3071e-05
4.44249e-05
4.56447e-05
4.68015e-05
4.79511e-05
4.91253e-05
5.03283e-05
5.15402e-05
5.27263e-05
5.38467e-05
5.48407e-05
5.59934e-05
5.63703e-05
5.69164e-05
5.767e-05
5.8202e-05
5.88364e-05
5.97213e-05
6.10547e-05
6.29696e-05
6.53676e-05
6.74631e-05
6.79342e-05
6.5156e-05
5.6286e-05
4.87826e-05
4.72487e-05
4.96334e-05
4.00652e-05
9.34317e-06
7.91887e-07
1.05017e-05
1.97873e-05
2.48588e-05
3.10536e-05
3.40408e-05
3.4856e-05
3.62204e-05
3.81196e-05
4.02409e-05
4.19847e-05
4.33336e-05
4.44779e-05
4.55126e-05
4.65058e-05
4.7501e-05
4.85183e-05
4.95545e-05
5.0599e-05
5.1595e-05
5.26435e-05
5.36283e-05
5.41376e-05
5.48914e-05
5.57416e-05
5.64616e-05
5.72925e-05
5.8348e-05
5.98004e-05
6.17278e-05
6.40606e-05
6.60312e-05
6.64098e-05
6.38234e-05
5.52741e-05
4.75568e-05
4.59348e-05
4.97497e-05
4.09407e-05
9.63329e-06
6.6046e-07
9.3163e-06
1.88102e-05
2.29873e-05
2.88685e-05
3.3346e-05
3.4583e-05
3.57059e-05
3.71825e-05
3.89596e-05
4.07418e-05
4.21622e-05
4.32835e-05
4.42435e-05
4.51272e-05
4.59913e-05
4.68695e-05
4.7768e-05
4.87065e-05
4.95795e-05
5.07317e-05
5.14849e-05
5.21286e-05
5.30768e-05
5.39865e-05
5.48534e-05
5.58372e-05
5.70054e-05
5.85083e-05
6.03309e-05
6.24337e-05
6.40392e-05
6.4119e-05
6.1384e-05
5.34022e-05
4.58793e-05
4.44438e-05
4.96422e-05
4.16055e-05
9.90054e-06
5.4433e-07
8.36708e-06
1.8299e-05
2.16372e-05
2.67253e-05
3.17193e-05
3.4046e-05
3.53647e-05
3.66793e-05
3.81019e-05
3.95762e-05
4.10236e-05
4.21665e-05
4.30984e-05
4.39105e-05
4.46744e-05
4.54375e-05
4.62266e-05
4.7042e-05
4.79162e-05
4.89512e-05
4.95574e-05
5.03958e-05
5.14125e-05
5.23356e-05
5.32814e-05
5.43414e-05
5.55168e-05
5.69531e-05
5.84962e-05
6.01767e-05
6.11514e-05
6.07702e-05
5.77602e-05
5.0603e-05
4.40886e-05
4.26587e-05
4.9257e-05
4.19073e-05
1.01569e-05
4.39242e-07
7.70456e-06
1.77534e-05
2.11895e-05
2.51476e-05
2.99713e-05
3.33504e-05
3.49801e-05
3.63104e-05
3.75694e-05
3.88125e-05
3.99893e-05
4.10579e-05
4.19676e-05
4.2743e-05
4.34564e-05
4.41451e-05
4.48703e-05
4.557e-05
4.64541e-05
4.73312e-05
4.78935e-05
4.87766e-05
4.97405e-05
5.06406e-05
5.15458e-05
5.25496e-05
5.35526e-05
5.47374e-05
5.57542e-05
5.68074e-05
5.69035e-05
5.60007e-05
5.27167e-05
4.67416e-05
4.1796e-05
4.15779e-05
4.86507e-05
4.14884e-05
1.04147e-05
3.81608e-07
7.58492e-06
1.69618e-05
2.11828e-05
2.36438e-05
2.81254e-05
3.23129e-05
3.49254e-05
3.64841e-05
3.77734e-05
3.89103e-05
3.99159e-05
4.0795e-05
4.15534e-05
4.2177e-05
4.27546e-05
4.33079e-05
4.38914e-05
4.44705e-05
4.51359e-05
4.59501e-05
4.63766e-05
4.70568e-05
4.78495e-05
4.85704e-05
4.92307e-05
4.99619e-05
5.05203e-05
5.12037e-05
5.14127e-05
5.16913e-05
5.08066e-05
4.95435e-05
4.62744e-05
4.17561e-05
3.84154e-05
3.98593e-05
4.78233e-05
4.10072e-05
1.06431e-05
3.88388e-07
8.40312e-06
1.63921e-05
2.11459e-05
2.3704e-05
2.69565e-05
3.07333e-05
3.42327e-05
3.66355e-05
3.80529e-05
3.91417e-05
4.00184e-05
4.07205e-05
4.13024e-05
4.18322e-05
4.22923e-05
4.27422e-05
4.31163e-05
4.34901e-05
4.37543e-05
4.42321e-05
4.44682e-05
4.46823e-05
4.50249e-05
4.53474e-05
4.54917e-05
4.56716e-05
4.54981e-05
4.54687e-05
4.47555e-05
4.43534e-05
4.28006e-05
4.16895e-05
3.91041e-05
3.69567e-05
3.58851e-05
3.8907e-05
4.68486e-05
4.01873e-05
1.07233e-05
5.30801e-07
1.04533e-05
1.67923e-05
2.14698e-05
2.44275e-05
2.75976e-05
3.09e-05
3.42424e-05
3.73125e-05
3.97929e-05
4.12036e-05
4.21605e-05
4.28761e-05
4.32245e-05
4.32811e-05
4.31279e-05
4.2855e-05
4.25046e-05
4.2154e-05
4.17053e-05
4.1412e-05
4.08423e-05
4.06419e-05
4.03009e-05
3.97699e-05
3.92508e-05
3.8735e-05
3.78888e-05
3.72991e-05
3.61682e-05
3.56636e-05
3.44114e-05
3.42133e-05
3.31913e-05
3.37826e-05
3.48184e-05
3.92767e-05
4.55099e-05
3.80844e-05
1.07282e-05
8.24386e-07
1.35614e-05
1.89066e-05
2.27946e-05
2.60218e-05
2.93912e-05
3.28088e-05
3.55342e-05
3.79579e-05
4.03066e-05
4.21343e-05
4.29149e-05
4.31042e-05
4.28357e-05
4.22504e-05
4.12862e-05
4.03313e-05
3.93544e-05
3.82736e-05
3.73765e-05
3.61417e-05
3.51575e-05
3.43909e-05
3.32906e-05
3.22993e-05
3.14513e-05
3.07654e-05
3.01769e-05
2.98415e-05
2.9461e-05
2.9721e-05
2.9806e-05
3.09318e-05
3.1825e-05
3.42639e-05
3.69224e-05
4.18522e-05
4.35061e-05
3.63084e-05
1.04153e-05
1.36161e-06
1.75634e-05
2.0831e-05
2.48515e-05
2.83727e-05
3.16071e-05
3.45306e-05
3.67818e-05
3.79079e-05
3.89539e-05
3.97788e-05
3.98433e-05
3.95238e-05
3.8848e-05
3.7978e-05
3.698e-05
3.58843e-05
3.45753e-05
3.334e-05
3.25281e-05
3.15454e-05
3.05736e-05
2.98924e-05
2.94347e-05
2.90802e-05
2.90163e-05
2.90785e-05
2.94675e-05
3.00432e-05
3.09336e-05
3.21889e-05
3.3461e-05
3.55514e-05
3.73541e-05
4.04887e-05
4.28334e-05
4.53379e-05
4.21667e-05
3.3018e-05
9.83949e-06
2.38851e-06
2.10391e-05
2.34978e-05
2.78073e-05
3.0863e-05
3.31914e-05
3.49223e-05
3.63219e-05
3.65653e-05
3.69062e-05
3.71491e-05
3.71195e-05
3.70611e-05
3.66874e-05
3.64313e-05
3.61989e-05
3.58617e-05
3.55529e-05
3.52884e-05
3.51899e-05
3.51885e-05
3.5347e-05
3.55575e-05
3.59881e-05
3.64466e-05
3.71471e-05
3.78642e-05
3.8815e-05
3.98284e-05
4.09915e-05
4.2362e-05
4.3577e-05
4.55273e-05
4.62267e-05
4.87228e-05
4.75597e-05
4.5922e-05
4.00719e-05
2.50426e-05
8.60934e-06
1.61776e-06
2.53217e-06
3.30678e-06
4.14102e-06
4.88422e-06
5.56139e-06
6.11125e-06
6.58969e-06
6.91676e-06
7.1426e-06
7.27504e-06
7.34732e-06
7.34425e-06
7.32091e-06
7.26939e-06
7.19961e-06
7.12104e-06
7.04269e-06
6.96592e-06
6.89994e-06
6.84103e-06
6.80303e-06
6.77105e-06
6.77106e-06
6.78493e-06
6.80266e-06
6.87938e-06
6.93219e-06
7.07171e-06
7.15675e-06
7.36389e-06
7.4814e-06
7.7662e-06
7.96699e-06
8.43297e-06
8.7104e-06
9.18662e-06
9.21207e-06
8.89697e-06
7.4356e-06
)
;

boundaryField
{
    movingWall
    {
        type            nutkWallFunction;
        Cmu             0.09;
        kappa           0.41;
        E               9.8;
        value           uniform 0;
    }
    fixedWalls
    {
        type            nutkWallFunction;
        Cmu             0.09;
        kappa           0.41;
        E               9.8;
        value           uniform 0;
    }
    frontAndBack
    {
        type            empty;
    }
}


// ************************************************************************* //
