/*--------------------------------*- C++ -*----------------------------------*\
  =========                 |
  \\      /  F ield         | OpenFOAM: The Open Source CFD Toolbox
   \\    /   O peration     | Website:  https://openfoam.org
    \\  /    A nd           | Version:  12
     \\/     M anipulation  |
\*---------------------------------------------------------------------------*/
FoamFile
{
    format      ascii;
    class       volScalarField;
    location    "6";
    object      p;
}
// * * * * * * * * * * * * * * * * * * * * * * * * * * * * * * * * * * * * * //

dimensions      [0 2 -2 0 0 0 0];

internalField   nonuniform List<scalar> 
1600
(
1.50257e-08
-1.93657e-05
-9.54346e-05
-0.000205893
-0.00030911
-0.000391581
-0.000467299
-0.000566076
-0.000697514
-0.00086169
-0.00106794
-0.00136825
-0.00176429
-0.00198455
-0.00217492
-0.00265419
-0.00341295
-0.00430389
-0.00517495
-0.00589498
-0.00636968
-0.00653182
-0.00632963
-0.00571811
-0.00471574
-0.00333971
-0.00159577
0.000461822
0.00272774
0.005
0.0070078
0.0084448
0.00908936
0.00890902
0.00797019
0.00699242
0.00637921
0.00627224
0.00636124
0.00640217
-1.48939e-05
-5.70243e-05
-0.000141595
-0.000249008
-0.000327624
-0.000372203
-0.000412763
-0.000487936
-0.000604864
-0.000745884
-0.000879982
-0.00108056
-0.00146148
-0.00196372
-0.00253126
-0.00323375
-0.00407214
-0.00497009
-0.00581701
-0.00650689
-0.00695887
-0.00711583
-0.00693494
-0.00639286
-0.00547969
-0.00417777
-0.00251323
-0.000535243
0.00164616
0.00386646
0.00588707
0.00741299
0.00820262
0.00817261
0.00743163
0.00648285
0.00600039
0.00606415
0.00622267
0.0062983
-3.36625e-05
-0.00011655
-0.000227394
-0.000331339
-0.000378343
-0.000374232
-0.000368879
-0.000390694
-0.00046251
-0.000647723
-0.000977609
-0.00142007
-0.00199491
-0.0027063
-0.00353598
-0.00444056
-0.00536701
-0.00625735
-0.00704678
-0.00767235
-0.00807891
-0.00821443
-0.00804702
-0.00755773
-0.00672222
-0.00553384
-0.00401158
-0.00219672
-0.000166993
0.00195524
0.00397248
0.00564696
0.00673818
0.00709478
0.00678976
0.00620082
0.00589575
0.00594605
0.0060977
0.00614716
-3.18301e-05
-0.000156328
-0.000305726
-0.000399191
-0.000409923
-0.000374793
-0.000360474
-0.000410989
-0.00057501
-0.000934128
-0.00152494
-0.0022917
-0.00316157
-0.00410124
-0.00508856
-0.00607979
-0.00702601
-0.00788735
-0.00862428
-0.00919684
-0.00955992
-0.00966918
-0.00950362
-0.00904935
-0.00829363
-0.00723381
-0.00588294
-0.00426923
-0.00244365
-0.000484106
0.00147748
0.00327017
0.0046866
0.00556326
0.00591481
0.00592396
0.00594275
0.0059758
0.00604178
0.00603743
9.01134e-05
-9.43717e-05
-0.000264427
-0.000357191
-0.000376354
-0.000373852
-0.000429077
-0.000623331
-0.00102883
-0.00168873
-0.00257878
-0.0036134
-0.00470721
-0.00580686
-0.00687786
-0.00789679
-0.00884029
-0.00968511
-0.0103862
-0.0109045
-0.0112092
-0.0112885
-0.0111291
-0.0107176
-0.010046
-0.00911547
-0.00793217
-0.00651155
-0.00488532
-0.00311013
-0.00126773
0.000537213
0.00218515
0.00356481
0.00462043
0.00536122
0.00584612
0.00607632
0.00603182
0.00596165
0.000398805
0.000143298
-4.90767e-05
-0.000176032
-0.00026436
-0.000385519
-0.000636645
-0.00110853
-0.00184666
-0.00282891
-0.00397825
-0.00520335
-0.00643557
-0.00762488
-0.00874698
-0.00978324
-0.0107055
-0.0114873
-0.012105
-0.0125482
-0.0128024
-0.0128583
-0.0127085
-0.0123423
-0.0117563
-0.0109516
-0.00993184
-0.00870431
-0.00728379
-0.00569754
-0.00398866
-0.00221827
-0.00045505
0.00125887
0.00287734
0.0042993
0.00535992
0.00596912
0.00596245
0.00584637
0.00087338
0.000568561
0.000323499
0.000114317
-0.000119172
-0.000470343
-0.00103322
-0.0018631
-0.00294426
-0.00420537
-0.00555059
-0.00690455
-0.00821416
-0.00944075
-0.0105611
-0.011557
-0.0124156
-0.0131235
-0.0136713
-0.0140546
-0.0142665
-0.0143022
-0.0141575
-0.0138276
-0.0133117
-0.0126112
-0.0117289
-0.0106688
-0.00943691
-0.0080421
-0.0064982
-0.00482401
-0.00303576
-0.00114295
0.000822931
0.00275598
0.00440344
0.00549311
0.00589379
0.00567376
0.00144847
0.00110157
0.000759498
0.000415324
-3.86491e-05
-0.000702991
-0.00163544
-0.00282568
-0.00420612
-0.00567845
-0.00715738
-0.00858459
-0.00991817
-0.0111317
-0.0122108
-0.0131472
-0.0139376
-0.0145784
-0.0150669
-0.0154012
-0.015579
-0.0155986
-0.0154585
-0.0151577
-0.0146971
-0.0140785
-0.0133044
-0.0123773
-0.0112984
-0.0100673
-0.00868151
-0.00713441
-0.00541038
-0.00348407
-0.00134987
0.000903086
0.00302497
0.0046867
0.0056224
0.0053124
0.00196785
0.00155276
0.00110513
0.000592679
-0.000130653
-0.00113988
-0.00242753
-0.00392824
-0.00553453
-0.00715015
-0.00870604
-0.0101583
-0.011478
-0.012652
-0.013676
-0.0145504
-0.0152777
-0.0158596
-0.0162974
-0.0165918
-0.0167431
-0.0167517
-0.0166174
-0.0163412
-0.0159248
-0.0153706
-0.0146812
-0.0138583
-0.0129013
-0.0118052
-0.0105585
-0.00914094
-0.00752082
-0.00565371
-0.00349734
-0.00108415
0.00136781
0.00351943
0.00492028
0.0050333
0.00227314
0.00179493
0.00123345
0.00053343
-0.000468254
-0.00179785
-0.00338015
-0.00510847
-0.00686581
-0.00856295
-0.0101479
-0.0115898
-0.0128734
-0.0139966
-0.0149628
-0.0157787
-0.0164502
-0.0169824
-0.0173792
-0.017643
-0.0177754
-0.0177777
-0.0176506
-0.0173957
-0.0170151
-0.0165114
-0.0158872
-0.0151444
-0.0142822
-0.0132947
-0.0121677
-0.0108758
-0.00938062
-0.00762827
-0.00555104
-0.00311988
-0.000503282
0.0019463
0.00384492
0.00487389
0.00225862
0.00173119
0.00106109
0.000180245
-0.00107168
-0.00265432
-0.00445122
-0.00631994
-0.00816
-0.00988612
-0.011463
-0.012871
-0.0141063
-0.0151749
-0.0160858
-0.0168492
-0.0174738
-0.0179662
-0.0183316
-0.0185732
-0.0186934
-0.0186936
-0.018575
-0.0183393
-0.0179886
-0.0175254
-0.0169524
-0.0162717
-0.0154829
-0.0145813
-0.0135536
-0.0123754
-0.0110082
-0.00939797
-0.00746955
-0.00514735
-0.00250785
5.18722e-05
0.00227891
0.00382997
0.00189704
0.00133055
0.000566113
-0.000466688
-0.00190729
-0.00366635
-0.00558545
-0.00752614
-0.00938967
-0.0111038
-0.0126461
-0.0140054
-0.015187
-0.0162018
-0.0170623
-0.0177806
-0.0183668
-0.0188283
-0.0191705
-0.0193969
-0.0195101
-0.0195113
-0.0194021
-0.019184
-0.018859
-0.0184294
-0.0178978
-0.0172665
-0.0165361
-0.0157035
-0.0147588
-0.0136813
-0.0124363
-0.0109741
-0.00922563
-0.007097
-0.00456148
-0.00202556
0.000221426
0.00184111
0.00120942
0.000621523
-0.000210621
-0.00135832
-0.00291489
-0.00476998
-0.006734
-0.00869105
-0.0105336
-0.0122072
-0.0136978
-0.0150012
-0.0161281
-0.0170924
-0.0179084
-0.0185891
-0.0191445
-0.0195822
-0.0199074
-0.0201237
-0.0202332
-0.0202375
-0.020138
-0.0199361
-0.0196337
-0.0192327
-0.0187356
-0.0181449
-0.0174622
-0.0166864
-0.0158115
-0.014822
-0.0136897
-0.0123712
-0.0108065
-0.00890854
-0.00660917
-0.00417923
-0.00210349
-0.000633901
0.000266907
-0.000321979
-0.00119064
-0.00240842
-0.00402285
-0.00589965
-0.00785487
-0.009784
-0.0115757
-0.0131915
-0.0146216
-0.0158671
-0.0169415
-0.0178599
-0.0186375
-0.0192868
-0.0198175
-0.0202369
-0.0205496
-0.020759
-0.0208673
-0.0208756
-0.0207856
-0.0205985
-0.0203159
-0.0199397
-0.0194722
-0.018916
-0.0182735
-0.0175459
-0.0167307
-0.0158183
-0.014788
-0.0136042
-0.0122157
-0.0105529
-0.00854388
-0.00630512
-0.00448586
-0.00324608
-0.000829709
-0.00140592
-0.002285
-0.00352675
-0.00514671
-0.00699397
-0.00891043
-0.0107808
-0.0125047
-0.0140541
-0.0154213
-0.0166105
-0.0176364
-0.0185144
-0.019259
-0.0198822
-0.0203931
-0.020798
-0.0211014
-0.0213061
-0.0214142
-0.021427
-0.0213458
-0.0211719
-0.0209068
-0.0205521
-0.0201102
-0.0195838
-0.018976
-0.0182896
-0.0175256
-0.0166801
-0.0157398
-0.0146782
-0.0134544
-0.0120156
-0.0102937
-0.00831784
-0.00674994
-0.00573504
-0.00197994
-0.00253077
-0.00340105
-0.00463077
-0.00621832
-0.00800798
-0.00986549
-0.0116619
-0.013312
-0.0147936
-0.0160999
-0.0172372
-0.0182198
-0.0190627
-0.0197794
-0.020381
-0.0208757
-0.0212691
-0.0215652
-0.0217666
-0.0218751
-0.0218921
-0.0218188
-0.0216564
-0.0214064
-0.0210703
-0.0206505
-0.0201497
-0.0195718
-0.0189209
-0.0182008
-0.0174124
-0.0165494
-0.0155942
-0.0145152
-0.0132697
-0.0118061
-0.0101496
-0.00881282
-0.00796271
-0.00308855
-0.00360717
-0.00445296
-0.00565238
-0.00718762
-0.00890728
-0.0106942
-0.0124129
-0.013991
-0.0154085
-0.0166596
-0.0177509
-0.0186962
-0.0195092
-0.0202027
-0.0207865
-0.021268
-0.0216521
-0.0219425
-0.0221414
-0.0222506
-0.0222712
-0.0222046
-0.0220518
-0.0218144
-0.021494
-0.0210928
-0.0206137
-0.0200611
-0.0194402
-0.0187572
-0.0180168
-0.0172191
-0.0163541
-0.0153978
-0.0143134
-0.0130689
-0.0117053
-0.0105856
-0.00986829
-0.00408412
-0.00456261
-0.00537411
-0.00653623
-0.00801473
-0.00966402
-0.0113787
-0.013024
-0.0145368
-0.0158977
-0.0171012
-0.0181537
-0.0190679
-0.0198566
-0.0205312
-0.0211007
-0.0215716
-0.0219485
-0.0222344
-0.0224314
-0.0225411
-0.0225647
-0.0225033
-0.0223583
-0.0221309
-0.0218229
-0.0214366
-0.0209752
-0.0204432
-0.0198467
-0.0191935
-0.018492
-0.0177471
-0.0169559
-0.0161007
-0.0151504
-0.0140905
-0.0129715
-0.0120408
-0.0114274
-0.00490827
-0.00535175
-0.00612327
-0.00724558
-0.00867003
-0.0102577
-0.0119069
-0.0134883
-0.0149457
-0.0162597
-0.0174246
-0.0184463
-0.0193362
-0.0201059
-0.020766
-0.0213247
-0.0217877
-0.0221591
-0.0224416
-0.0226372
-0.0227473
-0.022773
-0.0227155
-0.022576
-0.0223559
-0.022057
-0.0216817
-0.0212334
-0.0207168
-0.0201388
-0.0195084
-0.0188364
-0.018132
-0.017398
-0.0166231
-0.0157836
-0.0148734
-0.0139372
-0.013167
-0.0126414
-0.00553627
-0.0059361
-0.00667333
-0.00776076
-0.00913777
-0.0106756
-0.012271
-0.0138008
-0.0152148
-0.016493
-0.0176292
-0.0186284
-0.0195009
-0.0202573
-0.0209075
-0.0214588
-0.0219166
-0.0222845
-0.022565
-0.0227598
-0.0228701
-0.0228972
-0.022842
-0.0227057
-0.0224899
-0.0221965
-0.0218279
-0.0213878
-0.0208811
-0.0203151
-0.0196999
-0.0190479
-0.0183718
-0.0176788
-0.0169646
-0.0162129
-0.0154207
-0.0146249
-0.0139791
-0.0135224
-0.00594237
-0.00630679
-0.00701958
-0.00807713
-0.00941211
-0.0109129
-0.0124669
-0.0139584
-0.0153418
-0.0165958
-0.0177135
-0.0186989
-0.0195612
-0.0203101
-0.0209553
-0.0215032
-0.0219587
-0.0223252
-0.0226051
-0.0227998
-0.0229105
-0.0229382
-0.0228837
-0.0227484
-0.0225339
-0.0222421
-0.0218757
-0.0214383
-0.0209354
-0.0203745
-0.0197664
-0.0191248
-0.0184648
-0.0177977
-0.0171255
-0.0164392
-0.0157372
-0.0150443
-0.014492
-0.0140895
-0.0061109
-0.00646022
-0.00716279
-0.00819904
-0.00949809
-0.0109696
-0.0124928
-0.0139598
-0.0153252
-0.0165663
-0.0176754
-0.0186557
-0.0195153
-0.0202636
-0.0209088
-0.0214574
-0.021914
-0.0222817
-0.0225627
-0.0227583
-0.0228695
-0.0228972
-0.022842
-0.0227053
-0.0224888
-0.0221946
-0.0218254
-0.0213852
-0.0208795
-0.0203163
-0.0197069
-0.0190651
-0.0184096
-0.0177542
-0.0171062
-0.0164647
-0.0158306
-0.0152151
-0.0147297
-0.0143612
-0.00607317
-0.00641232
-0.00711018
-0.00813402
-0.00940532
-0.01085
-0.0123552
-0.0138081
-0.0151652
-0.0164031
-0.017513
-0.0184967
-0.0193614
-0.0201155
-0.0207665
-0.0213205
-0.021782
-0.022154
-0.0224383
-0.0226361
-0.0227482
-0.0227752
-0.0227183
-0.0225781
-0.0223564
-0.0220553
-0.021678
-0.0212285
-0.0207128
-0.0201393
-0.0195195
-0.0188687
-0.0182056
-0.0175477
-0.0169069
-0.0162899
-0.0157031
-0.0151431
-0.0147195
-0.0143535
-0.00586792
-0.00619509
-0.00688714
-0.00790253
-0.00915038
-0.0105642
-0.0120575
-0.0135042
-0.0148608
-0.0161039
-0.0172232
-0.0182189
-0.0190965
-0.0198632
-0.0205262
-0.0210911
-0.021562
-0.0219418
-0.0222321
-0.0224339
-0.0225479
-0.0225745
-0.0225144
-0.0223685
-0.0221384
-0.0218262
-0.0214351
-0.0209695
-0.020436
-0.0198434
-0.019204
-0.0185337
-0.0178516
-0.0171777
-0.0165283
-0.0159173
-0.0153585
-0.0148303
-0.0144804
-0.014079
-0.00553721
-0.00585
-0.00652922
-0.00753031
-0.00875499
-0.0101321
-0.0116047
-0.013049
-0.0144109
-0.0156658
-0.0168022
-0.0178178
-0.0187163
-0.0195034
-0.0201853
-0.0207672
-0.0212527
-0.0216446
-0.0219442
-0.0221524
-0.0222695
-0.0222958
-0.0222317
-0.0220781
-0.0218365
-0.0215089
-0.0210985
-0.0206101
-0.0200507
-0.0194298
-0.0187605
-0.0180596
-0.0173473
-0.0166445
-0.0159718
-0.0153518
-0.0148063
-0.0142807
-0.0139782
-0.0135531
-0.00513581
-0.005428
-0.00607827
-0.0070463
-0.00823762
-0.00957531
-0.0110103
-0.0124469
-0.0138149
-0.0150859
-0.0162454
-0.0172884
-0.0182159
-0.0190316
-0.0197403
-0.0203461
-0.0208524
-0.0212614
-0.0215744
-0.0217918
-0.0219138
-0.0219405
-0.0218719
-0.0217089
-0.0214527
-0.0211053
-0.02067
-0.0201519
-0.0195584
-0.0188998
-0.0181902
-0.0174475
-0.0166931
-0.015949
-0.0152398
-0.0145995
-0.0140565
-0.0135063
-0.0132418
-0.0127903
-0.00472952
-0.00498639
-0.00557958
-0.0064853
-0.00761858
-0.00890427
-0.0102894
-0.0117042
-0.013073
-0.0143603
-0.0155474
-0.0166247
-0.0175894
-0.0184425
-0.0191865
-0.0198244
-0.0203586
-0.0207908
-0.021122
-0.0213522
-0.0214816
-0.0215098
-0.0214367
-0.0212629
-0.0209894
-0.020618
-0.0201522
-0.0195973
-0.0189613
-0.0182555
-0.0174952
-0.0166995
-0.0158907
-0.0150925
-0.0143344
-0.013661
-0.0131043
-0.0125121
-0.0123068
-0.0118065
-0.00438363
-0.0045762
-0.00507187
-0.00587984
-0.00692412
-0.00813221
-0.00945191
-0.0108266
-0.0121852
-0.0134857
-0.0147025
-0.0158202
-0.0168304
-0.0177302
-0.0185191
-0.0191981
-0.0197684
-0.0202309
-0.0205861
-0.0208338
-0.0209737
-0.0210053
-0.0209282
-0.0207427
-0.0204496
-0.0200505
-0.019549
-0.0189506
-0.018264
-0.0175015
-0.0166799
-0.0158194
-0.0149443
-0.0140792
-0.013259
-0.0125379
-0.0119497
-0.011315
-0.0111775
-0.0105948
-0.00413941
-0.00422464
-0.00458107
-0.00525787
-0.00618106
-0.00727803
-0.00850624
-0.00981879
-0.0111523
-0.0124591
-0.0137057
-0.0148686
-0.0159324
-0.0168886
-0.0177327
-0.018463
-0.0190788
-0.0195799
-0.019966
-0.0202366
-0.0203912
-0.0204288
-0.020349
-0.0201516
-0.0198372
-0.0194075
-0.0188658
-0.0182179
-0.0174733
-0.0166453
-0.0157522
-0.0148158
-0.0138621
-0.0129171
-0.0120212
-0.0112363
-0.0105986
-0.00989844
-0.00986162
-0.00912135
-0.00397864
-0.00391139
-0.004121
-0.00464446
-0.00541184
-0.00636039
-0.00746336
-0.00868746
-0.00997707
-0.0112801
-0.0125541
-0.0137656
-0.0148905
-0.015913
-0.0168233
-0.0176159
-0.0182875
-0.0188365
-0.0192616
-0.0195618
-0.019736
-0.0197833
-0.0197031
-0.0194946
-0.0191584
-0.0186961
-0.0181109
-0.017409
-0.0166003
-0.0156993
-0.0147256
-0.0137025
-0.0126582
-0.0116203
-0.0106347
-0.00976909
-0.00905846
-0.00826291
-0.00835443
-0.00730682
-0.00377843
-0.00360148
-0.00370494
-0.0040586
-0.00463211
-0.00539342
-0.00633627
-0.00744327
-0.00866744
-0.00995367
-0.0112499
-0.0125116
-0.0137041
-0.0148024
-0.0157899
-0.0166562
-0.0173948
-0.0180018
-0.0184748
-0.0188121
-0.0190122
-0.0190741
-0.0189968
-0.0187793
-0.0184223
-0.0179272
-0.0172973
-0.0165389
-0.0156623
-0.0146827
-0.0136211
-0.0125019
-0.0113555
-0.0102114
-0.00912188
-0.00815606
-0.00734815
-0.00644338
-0.00660918
-0.00506959
-0.00349484
-0.00332689
-0.00334876
-0.00351024
-0.00385308
-0.00438966
-0.00513898
-0.00610082
-0.00723776
-0.00849266
-0.00980405
-0.0111154
-0.01238
-0.0135623
-0.0146374
-0.0155886
-0.0164053
-0.017081
-0.0176115
-0.0179944
-0.0182276
-0.01831
-0.0182405
-0.0180182
-0.0176433
-0.0171176
-0.0164444
-0.01563
-0.014685
-0.0136246
-0.0124707
-0.011248
-0.00998894
-0.00872569
-0.00751684
-0.00642807
-0.00549707
-0.00447192
-0.0045746
-0.00239365
-0.0032431
-0.00312856
-0.00305741
-0.00300532
-0.00308453
-0.0033615
-0.00388755
-0.00468075
-0.00571224
-0.0069226
-0.00824134
-0.00959973
-0.0109384
-0.0122104
-0.0133813
-0.0144271
-0.0153322
-0.0160866
-0.0166843
-0.0171215
-0.0173961
-0.0175062
-0.0174511
-0.0172303
-0.0168431
-0.0162921
-0.0155809
-0.0147154
-0.0137057
-0.0125668
-0.0113198
-0.00998904
-0.0086086
-0.00721231
-0.00586519
-0.00462476
-0.00353293
-0.00233862
-0.00220348
0.00062988
-0.00304858
-0.0029895
-0.00281534
-0.00254191
-0.00233234
-0.00232086
-0.00260089
-0.00321043
-0.00412629
-0.00528419
-0.00660414
-0.00800588
-0.00941786
-0.0107817
-0.012053
-0.0132
-0.0142012
-0.0150428
-0.0157161
-0.0162161
-0.0165402
-0.0166864
-0.0166539
-0.016443
-0.0160534
-0.0154865
-0.014747
-0.0138404
-0.0127756
-0.0115654
-0.0102292
-0.00878874
-0.00727798
-0.00572987
-0.00421272
-0.00277058
-0.00145127
7.18825e-06
0.000520376
0.00399796
-0.00285201
-0.00285794
-0.00258293
-0.00209365
-0.00158553
-0.00127587
-0.001305
-0.00172934
-0.00252937
-0.00363478
-0.0049546
-0.00639704
-0.00787956
-0.00933341
-0.0107049
-0.0119547
-0.0130553
-0.0139887
-0.0147437
-0.0153135
-0.0156948
-0.0158856
-0.0158854
-0.0156945
-0.0153156
-0.0147463
-0.0139929
-0.0130603
-0.0119552
-0.010686
-0.00926808
-0.00771687
-0.00606295
-0.00433115
-0.00258484
-0.000843808
0.000837764
0.00273829
0.00383221
0.00809713
-0.00261069
-0.00265857
-0.00231323
-0.0016192
-0.000825821
-0.000239082
-3.79734e-05
-0.000294631
-0.000991157
-0.00205104
-0.00337367
-0.00485634
-0.00640578
-0.00794434
-0.00941086
-0.0107592
-0.0119568
-0.0129817
-0.0138201
-0.0144635
-0.0149076
-0.0151505
-0.0151917
-0.0150315
-0.0146724
-0.0141176
-0.013366
-0.012423
-0.0112939
-0.0099795
-0.0084889
-0.00682467
-0.0050075
-0.00303906
-0.000961757
0.00125615
0.00356556
0.00628215
0.00847679
0.0143434
-0.00232399
-0.00237718
-0.00194933
-0.0010845
-4.70034e-05
0.000758438
0.00113978
0.00101581
0.000400847
-0.000623387
-0.00194893
-0.00346596
-0.00507371
-0.00668708
-0.00823888
-0.00967731
-0.0109653
-0.0120771
-0.0129972
-0.0137147
-0.0142243
-0.0145234
-0.0146126
-0.0144919
-0.0141639
-0.0136287
-0.0128899
-0.011946
-0.0108033
-0.00945374
-0.0078996
-0.00612025
-0.00411556
-0.00183902
0.000713078
0.00368592
0.0070749
0.0113921
0.016049
0.0256356
-0.0021422
-0.00215042
-0.00156659
-0.000514575
0.000684068
0.00166591
0.00216359
0.00212236
0.00155461
0.000542704
-0.000797511
-0.00235041
-0.00401083
-0.00568812
-0.00731114
-0.00882357
-0.0101857
-0.0113695
-0.0123577
-0.0131379
-0.0137045
-0.0140536
-0.0141865
-0.0141027
-0.0138053
-0.0132934
-0.0125702
-0.0116283
-0.0104684
-0.00908145
-0.00746981
-0.00557843
-0.00337474
-0.000737146
0.00242384
0.00647344
0.0115454
0.0188667
0.0285448
0.0451748
-0.0030698
-0.00246183
-0.00142368
-7.05919e-05
0.00131247
0.00239113
0.00296072
0.00296198
0.00241793
0.00141519
6.95222e-05
-0.00150403
-0.00320028
-0.00492548
-0.0066046
-0.00817635
-0.00959873
-0.01084
-0.0118819
-0.0127098
-0.0133199
-0.0137063
-0.0138714
-0.0138131
-0.0135364
-0.0130372
-0.0123206
-0.011379
-0.0102161
-0.00880966
-0.00714137
-0.00516484
-0.00279918
0.000117953
0.00390015
0.00917126
0.0166171
0.0287842
0.0465944
0.0734069
-0.00519905
-0.00164438
-7.78151e-05
0.00124164
0.00250539
0.00348862
0.0039829
0.00391613
0.00331657
0.00227586
0.000899191
-0.000708369
-0.00244528
-0.00421917
-0.00595021
-0.00757703
-0.00905297
-0.0103458
-0.0114321
-0.0123
-0.0129416
-0.0133563
-0.0135422
-0.0135025
-0.0132358
-0.0127461
-0.0120283
-0.0110819
-0.00989326
-0.00845635
-0.0067452
-0.00477211
-0.00233642
0.000588686
0.00494296
0.0110643
0.0218009
0.0397613
0.0674718
0.103295
)
;

boundaryField
{
    movingWall
    {
        type            zeroGradient;
    }
    fixedWalls
    {
        type            zeroGradient;
    }
    frontAndBack
    {
        type            empty;
    }
}


// ************************************************************************* //
