/*--------------------------------*- C++ -*----------------------------------*\
  =========                 |
  \\      /  F ield         | OpenFOAM: The Open Source CFD Toolbox
   \\    /   O peration     | Website:  https://openfoam.org
    \\  /    A nd           | Version:  12
     \\/     M anipulation  |
\*---------------------------------------------------------------------------*/
FoamFile
{
    format      ascii;
    class       surfaceScalarField;
    location    "6";
    object      phi;
}
// * * * * * * * * * * * * * * * * * * * * * * * * * * * * * * * * * * * * * //

dimensions      [0 3 -1 0 0 0 0];

internalField   nonuniform List<scalar> 
3120
(
8.50637e-08
-8.50651e-08
2.13239e-07
-1.28176e-07
3.10931e-07
-9.7692e-08
3.47155e-07
-3.62241e-08
3.40307e-07
6.84826e-09
3.22616e-07
1.76913e-08
3.14921e-07
7.69408e-09
3.10268e-07
4.653e-09
2.89509e-07
2.07597e-08
2.38989e-07
5.05199e-08
1.39875e-07
9.91141e-08
-5.41893e-08
1.94064e-07
-3.6316e-07
3.08971e-07
-8.1788e-07
4.54719e-07
-1.37638e-06
5.58498e-07
-1.93777e-06
5.61389e-07
-2.45234e-06
5.14578e-07
-2.89761e-06
4.45268e-07
-3.26881e-06
3.71194e-07
-3.56681e-06
2.98004e-07
-3.7932e-06
2.26394e-07
-3.94991e-06
1.56706e-07
-4.03718e-06
8.72647e-08
-4.05445e-06
1.72724e-08
-3.99586e-06
-5.85891e-08
-3.86462e-06
-1.31237e-07
-3.64751e-06
-2.17113e-07
-3.34346e-06
-3.04052e-07
-2.94484e-06
-3.98615e-07
-2.45262e-06
-4.92221e-07
-1.86854e-06
-5.84085e-07
-1.21312e-06
-6.55412e-07
-5.40958e-07
-6.72165e-07
7.16098e-08
-6.12568e-07
5.56371e-07
-4.84761e-07
7.53759e-07
-1.97388e-07
6.41855e-07
1.11904e-07
4.14318e-07
2.27536e-07
1.73514e-07
2.40804e-07
1.73514e-07
1.55648e-07
-2.40713e-07
3.31478e-07
-3.04006e-07
4.42987e-07
-2.09201e-07
4.77557e-07
-7.07946e-08
4.50748e-07
3.36574e-08
3.82909e-07
8.55307e-08
2.85985e-07
1.04618e-07
1.40048e-07
1.5059e-07
-9.59924e-08
2.568e-07
-4.66769e-07
4.21296e-07
-1.00121e-06
6.33554e-07
-1.6702e-06
8.63053e-07
-2.38636e-06
1.02513e-06
-3.02552e-06
1.09388e-06
-3.53063e-06
1.06361e-06
-3.95374e-06
9.84499e-07
-4.31266e-06
8.735e-07
-4.61141e-06
7.44014e-07
-4.85049e-06
6.10271e-07
-5.03063e-06
4.7815e-07
-5.15233e-06
3.48092e-07
-5.21974e-06
2.24116e-07
-5.23149e-06
9.90103e-08
-5.18488e-06
-2.9333e-08
-5.08478e-06
-1.58687e-07
-4.91897e-06
-2.97049e-07
-4.68767e-06
-4.48418e-07
-4.37984e-06
-6.11877e-07
-3.98604e-06
-7.92414e-07
-3.50111e-06
-9.77155e-07
-2.93024e-06
-1.15495e-06
-2.28143e-06
-1.30423e-06
-1.57851e-06
-1.37508e-06
-8.6412e-07
-1.32695e-06
-2.48236e-07
-1.10064e-06
2.12367e-07
-6.57991e-07
3.65708e-07
-4.14372e-08
3.02666e-07
2.90578e-07
1.4067e-07
4.02801e-07
3.14184e-07
1.92185e-07
-4.32898e-07
3.30572e-07
-4.42393e-07
3.81669e-07
-2.60298e-07
3.57633e-07
-4.67591e-08
2.69141e-07
1.22149e-07
1.1165e-07
2.43022e-07
-1.50047e-07
3.66315e-07
-5.50732e-07
5.51275e-07
-1.10694e-06
8.13009e-07
-1.78949e-06
1.10384e-06
-2.50512e-06
1.34919e-06
-3.13844e-06
1.49637e-06
-3.66387e-06
1.55057e-06
-4.08455e-06
1.51455e-06
-4.42791e-06
1.40698e-06
-4.70558e-06
1.26216e-06
-4.9293e-06
1.09722e-06
-5.1084e-06
9.23119e-07
-5.24863e-06
7.505e-07
-5.35144e-06
5.8096e-07
-5.42017e-06
4.1682e-07
-5.45067e-06
2.54618e-07
-5.44094e-06
8.92717e-08
-5.39342e-06
-7.68508e-08
-5.30568e-06
-2.4643e-07
-5.17511e-06
-4.2761e-07
-4.99877e-06
-6.24767e-07
-4.77096e-06
-8.3968e-07
-4.48699e-06
-1.07638e-06
-4.13279e-06
-1.33136e-06
-3.69398e-06
-1.59375e-06
-3.16157e-06
-1.83665e-06
-2.53656e-06
-2.00009e-06
-1.84364e-06
-2.01988e-06
-1.13612e-06
-1.80816e-06
-4.93052e-07
-1.30106e-06
-7.79759e-08
-4.56514e-07
3.41165e-08
1.78486e-07
2.45369e-08
4.1238e-07
3.38721e-07
1.64226e-07
-5.97123e-07
2.21267e-07
-4.99434e-07
1.81589e-07
-2.2062e-07
6.58379e-08
6.89925e-08
-1.33541e-07
3.21528e-07
-4.49834e-07
5.59315e-07
-9.11636e-07
8.28116e-07
-1.51102e-06
1.15066e-06
-2.18815e-06
1.49014e-06
-2.85326e-06
1.76895e-06
-3.42539e-06
1.92132e-06
-3.88142e-06
1.95239e-06
-4.23124e-06
1.9004e-06
-4.49873e-06
1.78204e-06
-4.71204e-06
1.62028e-06
-4.88144e-06
1.43156e-06
-5.01875e-06
1.23453e-06
-5.13268e-06
1.03705e-06
-5.22414e-06
8.4196e-07
-5.28893e-06
6.45743e-07
-5.32782e-06
4.55715e-07
-5.33859e-06
2.65392e-07
-5.32308e-06
7.37612e-08
-5.2825e-06
-1.17436e-07
-5.21468e-06
-3.1425e-07
-5.11688e-06
-5.25405e-07
-4.98721e-06
-7.54443e-07
-4.82157e-06
-1.00532e-06
-4.61827e-06
-1.27969e-06
-4.37241e-06
-1.57722e-06
-4.07876e-06
-1.8874e-06
-3.72121e-06
-2.1942e-06
-3.25842e-06
-2.46288e-06
-2.66631e-06
-2.61199e-06
-1.95462e-06
-2.51985e-06
-1.17984e-06
-2.07584e-06
-4.54146e-07
-1.1822e-06
-1.25991e-07
-1.49669e-07
-2.3409e-08
3.09798e-07
3.15312e-07
8.13934e-08
-6.78517e-07
3.09534e-08
-4.48994e-07
-1.11632e-07
-7.80351e-08
-3.36155e-07
2.93516e-07
-6.65848e-07
6.51221e-07
-1.12197e-06
1.01543e-06
-1.69758e-06
1.40373e-06
-2.3373e-06
1.79038e-06
-2.95332e-06
2.10616e-06
-3.46626e-06
2.28188e-06
-3.86034e-06
2.31541e-06
-4.16256e-06
2.25461e-06
-4.38871e-06
2.12655e-06
-4.55976e-06
1.95308e-06
-4.69428e-06
1.75481e-06
-4.8039e-06
1.54118e-06
-4.88906e-06
1.3197e-06
-4.94853e-06
1.09651e-06
-4.98274e-06
8.76176e-07
-4.99902e-06
6.62023e-07
-4.99917e-06
4.5586e-07
-4.98601e-06
2.52232e-07
-4.96075e-06
4.85026e-08
-4.92165e-06
-1.56539e-07
-4.86655e-06
-3.69349e-07
-4.79596e-06
-5.95993e-07
-4.70925e-06
-8.41156e-07
-4.6047e-06
-1.10986e-06
-4.47862e-06
-1.40577e-06
-4.32569e-06
-1.73015e-06
-4.13616e-06
-2.07693e-06
-3.90139e-06
-2.42897e-06
-3.60329e-06
-2.76098e-06
-3.19958e-06
-3.0157e-06
-2.62186e-06
-3.09758e-06
-1.85687e-06
-2.84083e-06
-9.28632e-07
-2.11044e-06
-2.18352e-07
-8.59949e-07
-1.19591e-08
1.03405e-07
3.03353e-07
-4.36151e-08
-6.34902e-07
-2.03069e-07
-2.8954e-07
-4.43801e-07
1.62697e-07
-7.72592e-07
6.22307e-07
-1.20619e-06
1.08482e-06
-1.73827e-06
1.54752e-06
-2.32586e-06
1.99131e-06
-2.89516e-06
2.35968e-06
-3.37027e-06
2.58128e-06
-3.72496e-06
2.63656e-06
-3.98858e-06
2.57903e-06
-4.18366e-06
2.4497e-06
-4.32532e-06
2.26821e-06
-4.42796e-06
2.05572e-06
-4.49624e-06
1.82309e-06
-4.53701e-06
1.58195e-06
-4.55719e-06
1.33988e-06
-4.5637e-06
1.10302e-06
-4.56169e-06
8.7417e-07
-4.55246e-06
6.52787e-07
-4.53433e-06
4.37735e-07
-4.50832e-06
2.26216e-07
-4.4752e-06
1.53853e-08
-4.434e-06
-1.97742e-07
-4.38509e-06
-4.18256e-07
-4.32982e-06
-6.51266e-07
-4.26904e-06
-9.01928e-07
-4.20323e-06
-1.17568e-06
-4.13164e-06
-1.47736e-06
-4.05165e-06
-1.81014e-06
-3.95577e-06
-2.17282e-06
-3.82847e-06
-2.55627e-06
-3.652e-06
-2.93744e-06
-3.39746e-06
-3.27024e-06
-3.00964e-06
-3.48539e-06
-2.39752e-06
-3.45296e-06
-1.51433e-06
-2.99362e-06
-4.98473e-07
-1.87581e-06
-3.45214e-08
-3.60546e-07
2.68831e-07
-1.64137e-07
-4.70765e-07
-4.32816e-07
-2.08606e-08
-7.60447e-07
4.90327e-07
-1.17119e-06
1.03305e-06
-1.66141e-06
1.57504e-06
-2.19925e-06
2.08536e-06
-2.72772e-06
2.51978e-06
-3.17749e-06
2.80945e-06
-3.50853e-06
2.91232e-06
-3.74386e-06
2.87189e-06
-3.91186e-06
2.74703e-06
-4.02476e-06
2.5626e-06
-4.09563e-06
2.33908e-06
-4.1337e-06
2.09379e-06
-4.14845e-06
1.83784e-06
-4.14796e-06
1.58146e-06
-4.13808e-06
1.33e-06
-4.12215e-06
1.08709e-06
-4.10119e-06
8.53215e-07
-4.07571e-06
6.27305e-07
-4.04572e-06
4.0774e-07
-4.0114e-06
1.91897e-07
-3.97315e-06
-2.28589e-08
-3.93082e-06
-2.40077e-07
-3.88529e-06
-4.63788e-07
-3.83797e-06
-6.9858e-07
-3.79051e-06
-9.49388e-07
-3.74461e-06
-1.22158e-06
-3.70143e-06
-1.52054e-06
-3.66068e-06
-1.85088e-06
-3.6187e-06
-2.2148e-06
-3.56609e-06
-2.60889e-06
-3.48462e-06
-3.01891e-06
-3.34199e-06
-3.41287e-06
-3.09613e-06
-3.73126e-06
-2.67543e-06
-3.87366e-06
-1.99199e-06
-3.67706e-06
-9.51523e-07
-2.91627e-06
-1.183e-07
-1.19377e-06
1.50531e-07
-2.71584e-07
-1.99182e-07
-6.1814e-07
3.25696e-07
-1.0194e-06
8.91589e-07
-1.4778e-06
1.49145e-06
-1.97503e-06
2.07227e-06
-2.4711e-06
2.58143e-06
-2.90793e-06
2.95661e-06
-3.23276e-06
3.13427e-06
-3.45327e-06
3.13283e-06
-3.60378e-06
3.0224e-06
-3.69934e-06
2.84259e-06
-3.75147e-06
2.61473e-06
-3.77222e-06
2.35983e-06
-3.77114e-06
2.09271e-06
-3.7568e-06
1.82351e-06
-3.73491e-06
1.55957e-06
-3.7091e-06
1.30418e-06
-3.68087e-06
1.05886e-06
-3.65056e-06
8.22902e-07
-3.61827e-06
5.95015e-07
-3.58381e-06
3.73287e-07
-3.54704e-06
1.55127e-07
-3.50782e-06
-6.20868e-08
-3.46629e-06
-2.81599e-07
-3.42328e-06
-5.06803e-07
-3.38024e-06
-7.41623e-07
-3.33921e-06
-9.90417e-07
-3.30265e-06
-1.25814e-06
-3.27292e-06
-1.55027e-06
-3.25134e-06
-1.87246e-06
-3.23673e-06
-2.22941e-06
-3.22314e-06
-2.62248e-06
-3.19658e-06
-3.04547e-06
-3.13069e-06
-3.47876e-06
-2.98361e-06
-3.87833e-06
-2.69897e-06
-4.15831e-06
-2.20703e-06
-4.169e-06
-1.40677e-06
-3.71654e-06
-3.37073e-07
-2.26346e-06
-1.86542e-07
-3.4524e-07
1.46058e-07
-7.55462e-07
7.35918e-07
-1.19676e-06
1.33288e-06
-1.66499e-06
1.95968e-06
-2.13695e-06
2.54423e-06
-2.57102e-06
3.0155e-06
-2.90491e-06
3.2905e-06
-3.12849e-06
3.35785e-06
-3.27422e-06
3.27855e-06
-3.36361e-06
3.11179e-06
-3.40848e-06
2.88747e-06
-3.42096e-06
2.62721e-06
-3.41205e-06
2.35091e-06
-3.39016e-06
2.07082e-06
-3.36174e-06
1.79509e-06
-3.33054e-06
1.52837e-06
-3.29861e-06
1.27225e-06
-3.26664e-06
1.02689e-06
-3.23462e-06
7.90883e-07
-3.20213e-06
5.6253e-07
-3.16852e-06
3.39677e-07
-3.13324e-06
1.19843e-07
-3.09573e-06
-9.95943e-08
-3.05608e-06
-3.21247e-07
-3.01488e-06
-5.48e-07
-2.97345e-06
-7.83054e-07
-2.93389e-06
-1.02998e-06
-2.89899e-06
-1.29304e-06
-2.87193e-06
-1.57733e-06
-2.85552e-06
-1.88886e-06
-2.85084e-06
-2.2341e-06
-2.85498e-06
-2.61833e-06
-2.85799e-06
-3.04246e-06
-2.83902e-06
-3.49773e-06
-2.76157e-06
-3.95578e-06
-2.57355e-06
-4.34632e-06
-2.23297e-06
-4.50957e-06
-1.65797e-06
-4.29154e-06
-6.23504e-07
-3.29793e-06
-8.10046e-07
-3.88966e-07
5.35025e-07
-8.32868e-07
1.17982e-06
-1.28593e-06
1.78595e-06
-1.73968e-06
2.41343e-06
-2.17145e-06
2.976e-06
-2.52649e-06
3.37055e-06
-2.76904e-06
3.53305e-06
-2.92575e-06
3.51456e-06
-3.01962e-06
3.37243e-06
-3.06726e-06
3.15942e-06
-3.08012e-06
2.90034e-06
-3.07005e-06
2.61715e-06
-3.04641e-06
2.32727e-06
-3.01591e-06
2.04032e-06
-2.98314e-06
1.76232e-06
-2.95056e-06
1.49579e-06
-2.9193e-06
1.24099e-06
-2.88943e-06
9.97025e-07
-2.86048e-06
7.61929e-07
-2.83156e-06
5.33613e-07
-2.80169e-06
3.09807e-07
-2.77007e-06
8.82159e-08
-2.73601e-06
-1.33654e-07
-2.69934e-06
-3.57914e-07
-2.66042e-06
-5.86922e-07
-2.62023e-06
-8.23243e-07
-2.58056e-06
-1.06966e-06
-2.54401e-06
-1.32959e-06
-2.51392e-06
-1.60742e-06
-2.49385e-06
-1.90893e-06
-2.48652e-06
-2.24143e-06
-2.49177e-06
-2.61308e-06
-2.50372e-06
-3.03051e-06
-2.50743e-06
-3.49402e-06
-2.47348e-06
-3.98973e-06
-2.35145e-06
-4.46836e-06
-2.09354e-06
-4.76748e-06
-1.645e-06
-4.74008e-06
-8.83562e-07
-4.05937e-06
-1.69361e-06
-4.06546e-07
9.41571e-07
-8.55682e-07
1.62896e-06
-1.29784e-06
2.22811e-06
-1.72103e-06
2.83662e-06
-2.09882e-06
3.35379e-06
-2.37287e-06
3.6446e-06
-2.55406e-06
3.71424e-06
-2.665e-06
3.62549e-06
-2.72406e-06
3.43149e-06
-2.74555e-06
3.18091e-06
-2.74069e-06
2.89548e-06
-2.72023e-06
2.59668e-06
-2.6917e-06
2.29874e-06
-2.66031e-06
2.00894e-06
-2.62929e-06
1.73129e-06
-2.60017e-06
1.46667e-06
-2.57338e-06
1.2142e-06
-2.54846e-06
9.72101e-07
-2.52455e-06
7.3802e-07
-2.50057e-06
5.0963e-07
-2.47543e-06
2.84669e-07
-2.44825e-06
6.10369e-08
-2.41837e-06
-1.63529e-07
-2.38545e-06
-3.90841e-07
-2.34959e-06
-6.22781e-07
-2.31142e-06
-8.61406e-07
-2.27225e-06
-1.10883e-06
-2.23418e-06
-1.36766e-06
-2.20017e-06
-1.64143e-06
-2.17387e-06
-1.93523e-06
-2.15888e-06
-2.25642e-06
-2.15708e-06
-2.61488e-06
-2.16601e-06
-3.02158e-06
-2.17583e-06
-3.48421e-06
-2.16509e-06
-4.00046e-06
-2.08977e-06
-4.54368e-06
-1.87744e-06
-4.97982e-06
-1.51766e-06
-5.09986e-06
-9.26775e-07
-4.65025e-06
-2.62038e-06
-3.98055e-07
1.33963e-06
-8.31455e-07
2.06236e-06
-1.24598e-06
2.64263e-06
-1.62986e-06
3.2205e-06
-1.94412e-06
3.66805e-06
-2.15637e-06
3.85685e-06
-2.29606e-06
3.85393e-06
-2.37476e-06
3.70419e-06
-2.41156e-06
3.4683e-06
-2.41836e-06
3.1877e-06
-2.40573e-06
2.88285e-06
-2.38273e-06
2.57368e-06
-2.35533e-06
2.27133e-06
-2.32751e-06
1.98111e-06
-2.30146e-06
1.70524e-06
-2.27798e-06
1.4432e-06
-2.25695e-06
1.19317e-06
-2.2376e-06
9.52744e-07
-2.21891e-06
7.19332e-07
-2.1998e-06
4.90525e-07
-2.17928e-06
2.64149e-07
-2.15653e-06
3.82775e-08
-2.13094e-06
-1.89114e-07
-2.10212e-06
-4.19656e-07
-2.07e-06
-6.54902e-07
-2.03488e-06
-8.96531e-07
-1.99753e-06
-1.14618e-06
-1.9594e-06
-1.40579e-06
-1.92278e-06
-1.67805e-06
-1.89088e-06
-1.96712e-06
-1.86751e-06
-2.2798e-06
-1.85585e-06
-2.62653e-06
-1.85613e-06
-3.0213e-06
-1.86226e-06
-3.47808e-06
-1.85896e-06
-4.00377e-06
-1.81544e-06
-4.58719e-06
-1.64896e-06
-5.1463e-06
-1.35123e-06
-5.39759e-06
-8.27477e-07
-5.17401e-06
-3.44786e-06
-3.69512e-07
1.70914e-06
-7.72174e-07
2.46502e-06
-1.14941e-06
3.01986e-06
-1.48665e-06
3.55775e-06
-1.73771e-06
3.91911e-06
-1.9085e-06
4.02764e-06
-2.01637e-06
3.9618e-06
-2.07391e-06
3.76173e-06
-2.09751e-06
3.4919e-06
-2.09747e-06
3.18766e-06
-2.08332e-06
2.86869e-06
-2.06237e-06
2.55274e-06
-2.0393e-06
2.24826e-06
-2.01707e-06
1.95889e-06
-1.99707e-06
1.68525e-06
-1.97956e-06
1.42569e-06
-1.96408e-06
1.17769e-06
-1.94976e-06
9.3842e-07
-1.93563e-06
7.05208e-07
-1.92077e-06
4.75662e-07
-1.90434e-06
2.47721e-07
-1.88566e-06
1.95959e-08
-1.86424e-06
-2.10535e-07
-1.83969e-06
-4.44201e-07
-1.81182e-06
-6.82772e-07
-1.78067e-06
-9.27685e-07
-1.74657e-06
-1.18027e-06
-1.71036e-06
-1.44201e-06
-1.67355e-06
-1.71486e-06
-1.63861e-06
-2.00206e-06
-1.609e-06
-2.3094e-06
-1.58857e-06
-2.64696e-06
-1.57955e-06
-3.03032e-06
-1.57896e-06
-3.47866e-06
-1.57563e-06
-4.0071e-06
-1.5463e-06
-4.61651e-06
-1.42689e-06
-5.26572e-06
-1.16354e-06
-5.66094e-06
-7.23398e-07
-5.61415e-06
-4.17126e-06
-3.27471e-07
2.03661e-06
-6.894e-07
2.82695e-06
-1.02249e-06
3.35295e-06
-1.30757e-06
3.84283e-06
-1.50636e-06
4.1179e-06
-1.64569e-06
4.16697e-06
-1.73035e-06
4.04646e-06
-1.77428e-06
3.80567e-06
-1.79082e-06
3.50843e-06
-1.78889e-06
3.18574e-06
-1.77674e-06
2.85654e-06
-1.7601e-06
2.5361e-06
-1.7426e-06
2.23076e-06
-1.72636e-06
1.94264e-06
-1.71217e-06
1.67106e-06
-1.69996e-06
1.41348e-06
-1.68914e-06
1.16687e-06
-1.67893e-06
9.28207e-07
-1.66852e-06
6.94797e-07
-1.65718e-06
4.64328e-07
-1.6443e-06
2.34839e-07
-1.62934e-06
4.63696e-09
-1.61192e-06
-2.27955e-07
-1.59171e-06
-4.64416e-07
-1.56842e-06
-7.06056e-07
-1.54192e-06
-9.54185e-07
-1.51221e-06
-1.20998e-06
-1.4796e-06
-1.47462e-06
-1.44493e-06
-1.74953e-06
-1.40987e-06
-2.03712e-06
-1.37722e-06
-2.34205e-06
-1.35078e-06
-2.6734e-06
-1.33408e-06
-3.04703e-06
-1.32703e-06
-3.4857e-06
-1.32192e-06
-4.01222e-06
-1.3001e-06
-4.63833e-06
-1.22178e-06
-5.34404e-06
-9.8901e-07
-5.89371e-06
-6.14175e-07
-5.98898e-06
-4.78543e-06
-2.77748e-07
2.31436e-06
-5.90629e-07
3.13983e-06
-8.75368e-07
3.63769e-06
-1.10763e-06
4.07509e-06
-1.26805e-06
4.27832e-06
-1.38143e-06
4.28035e-06
-1.44807e-06
4.11311e-06
-1.48288e-06
3.84047e-06
-1.49601e-06
3.52156e-06
-1.49494e-06
3.18467e-06
-1.48641e-06
2.84801e-06
-1.47481e-06
2.5245e-06
-1.46287e-06
2.21882e-06
-1.45207e-06
1.93184e-06
-1.44281e-06
1.66179e-06
-1.43487e-06
1.40554e-06
-1.42771e-06
1.15971e-06
-1.4207e-06
9.21199e-07
-1.41325e-06
6.87353e-07
-1.40487e-06
4.55942e-07
-1.39511e-06
2.25082e-07
-1.38361e-06
-6.86809e-09
-1.37006e-06
-2.41496e-07
-1.35421e-06
-4.80273e-07
-1.33573e-06
-7.24529e-07
-1.31437e-06
-9.75546e-07
-1.2899e-06
-1.23446e-06
-1.26224e-06
-1.50228e-06
-1.23168e-06
-1.78009e-06
-1.19921e-06
-2.06959e-06
-1.1669e-06
-2.37437e-06
-1.13814e-06
-2.70215e-06
-1.11704e-06
-3.06813e-06
-1.10563e-06
-3.49711e-06
-1.09875e-06
-4.01911e-06
-1.08141e-06
-4.65566e-06
-1.02578e-06
-5.39966e-06
-8.38653e-07
-6.08084e-06
-5.26966e-07
-6.30067e-06
-5.3124e-06
-2.2129e-07
2.53565e-06
-4.82382e-07
3.40092e-06
-7.18782e-07
3.87409e-06
-9.02616e-07
4.25893e-06
-1.0314e-06
4.4071e-06
-1.12114e-06
4.37009e-06
-1.17432e-06
4.16629e-06
-1.20293e-06
3.86908e-06
-1.2147e-06
3.53333e-06
-1.2157e-06
3.18567e-06
-1.21119e-06
2.84349e-06
-1.20441e-06
2.51772e-06
-1.19737e-06
2.21179e-06
-1.19106e-06
1.92553e-06
-1.18567e-06
1.6564e-06
-1.18096e-06
1.40084e-06
-1.17656e-06
1.1553e-06
-1.17202e-06
9.16662e-07
-1.16698e-06
6.82312e-07
-1.16113e-06
4.50089e-07
-1.1542e-06
2.1816e-07
-1.14597e-06
-1.51023e-08
-1.13622e-06
-2.51243e-07
-1.12474e-06
-4.91759e-07
-1.11122e-06
-7.38046e-07
-1.09533e-06
-9.91434e-07
-1.07669e-06
-1.2531e-06
-1.05496e-06
-1.52401e-06
-1.03002e-06
-1.80503e-06
-1.0023e-06
-2.09731e-06
-9.7323e-07
-2.40343e-06
-9.45723e-07
-2.72966e-06
-9.24049e-07
-3.08981e-06
-9.11777e-07
-3.50938e-06
-9.06579e-07
-4.02431e-06
-8.97024e-07
-4.66522e-06
-8.61044e-07
-5.43564e-06
-7.12909e-07
-6.22898e-06
-4.42509e-07
-6.57107e-06
-5.75491e-06
-1.65006e-07
2.70065e-06
-3.71894e-07
3.60781e-06
-5.59637e-07
4.06183e-06
-6.99395e-07
4.39868e-06
-7.99511e-07
4.50721e-06
-8.68755e-07
4.43934e-06
-9.11149e-07
4.20869e-06
-9.35252e-07
3.89318e-06
-9.46622e-07
3.5447e-06
-9.49971e-07
3.18902e-06
-9.49167e-07
2.84269e-06
-9.46523e-07
2.51508e-06
-9.43453e-07
2.20872e-06
-9.40594e-07
1.92267e-06
-9.38064e-07
1.65387e-06
-9.35729e-07
1.3985e-06
-9.33366e-07
1.15294e-06
-9.30756e-07
9.14052e-07
-9.27721e-07
6.79277e-07
-9.24123e-07
4.46491e-07
-9.19846e-07
2.13883e-07
-9.14765e-07
-2.01831e-08
-9.08752e-07
-2.57257e-07
-9.01638e-07
-4.98873e-07
-8.93164e-07
-7.4652e-07
-8.82971e-07
-1.00163e-06
-8.70597e-07
-1.26547e-06
-8.55528e-07
-1.53908e-06
-8.37353e-07
-1.82321e-06
-8.16062e-07
-2.11861e-06
-7.9252e-07
-2.42698e-06
-7.69042e-07
-2.75314e-06
-7.49717e-07
-3.10913e-06
-7.39192e-07
-3.51991e-06
-7.38015e-07
-4.02549e-06
-7.36786e-07
-4.66645e-06
-7.1317e-07
-5.45926e-06
-6.10777e-07
-6.33137e-06
-3.86061e-07
-6.79578e-06
-6.14097e-06
-1.04869e-07
2.80552e-06
-2.60167e-07
3.7631e-06
-4.00303e-07
4.20197e-06
-5.00883e-07
4.49926e-06
-5.75154e-07
4.58148e-06
-6.26073e-07
4.49026e-06
-6.5896e-07
4.24158e-06
-6.79242e-07
3.91346e-06
-6.90439e-07
3.55589e-06
-6.95862e-07
3.19444e-06
-6.98132e-07
2.84496e-06
-6.98769e-07
2.51572e-06
-6.98705e-07
2.20866e-06
-6.98363e-07
1.92233e-06
-6.97866e-07
1.65337e-06
-6.97212e-07
1.39785e-06
-6.96363e-07
1.15209e-06
-6.95292e-07
9.1298e-07
-6.93989e-07
6.77975e-07
-6.9246e-07
4.44962e-07
-6.90704e-07
2.12127e-07
-6.88697e-07
-2.21907e-08
-6.86375e-07
-2.59579e-07
-6.83627e-07
-5.0162e-07
-6.80243e-07
-7.49904e-07
-6.75885e-07
-1.00598e-06
-6.70072e-07
-1.27128e-06
-6.62202e-07
-1.54695e-06
-6.51676e-07
-1.83373e-06
-6.38169e-07
-2.13211e-06
-6.22092e-07
-2.44305e-06
-6.05216e-07
-2.77002e-06
-5.91237e-07
-3.12311e-06
-5.8532e-07
-3.52582e-06
-5.90401e-07
-4.02041e-06
-5.99436e-07
-4.65741e-06
-5.9048e-07
-5.46822e-06
-5.20564e-07
-6.40129e-06
-3.33018e-07
-6.98333e-06
-6.47399e-06
-5.08886e-08
2.85641e-06
-1.51235e-07
3.86345e-06
-2.43978e-07
4.29471e-06
-3.09163e-07
4.56445e-06
-3.58922e-07
4.63124e-06
-3.92953e-07
4.52429e-06
-4.16973e-07
4.2656e-06
-4.33514e-07
3.93e-06
-4.44283e-07
3.56666e-06
-4.51215e-07
3.20138e-06
-4.55803e-07
2.84955e-06
-4.58875e-07
2.51879e-06
-4.60971e-07
2.21075e-06
-4.62377e-07
1.92374e-06
-4.63261e-07
1.65425e-06
-4.63774e-07
1.39836e-06
-4.64055e-07
1.15237e-06
-4.64244e-07
9.1317e-07
-4.64481e-07
6.78211e-07
-4.6489e-07
4.45371e-07
-4.65569e-07
2.12806e-07
-4.66576e-07
-2.11834e-08
-4.67913e-07
-2.58242e-07
-4.69522e-07
-5.00012e-07
-4.71251e-07
-7.48175e-07
-4.72812e-07
-1.00442e-06
-4.73752e-07
-1.27034e-06
-4.73451e-07
-1.54725e-06
-4.7121e-07
-1.83597e-06
-4.66484e-07
-2.13684e-06
-4.5932e-07
-2.45022e-06
-4.51e-07
-2.77834e-06
-4.44778e-07
-3.12933e-06
-4.45923e-07
-3.52468e-06
-4.58897e-07
-4.00743e-06
-4.78983e-07
-4.63732e-06
-4.87516e-07
-5.45968e-06
-4.47572e-07
-6.44123e-06
-2.95067e-07
-7.13584e-06
-6.76905e-06
9.05382e-09
2.84736e-06
-4.17069e-08
3.91421e-06
-9.17568e-08
4.34476e-06
-1.25173e-07
4.59787e-06
-1.50692e-07
4.65676e-06
-1.68795e-07
4.54239e-06
-1.8379e-07
4.28059e-06
-1.96175e-07
3.94239e-06
-2.06001e-07
3.57649e-06
-2.13769e-07
3.20915e-06
-2.19928e-07
2.85571e-06
-2.24689e-07
2.52355e-06
-2.28258e-07
2.21432e-06
-2.30829e-07
1.92631e-06
-2.32597e-07
1.65602e-06
-2.33903e-07
1.39967e-06
-2.35032e-07
1.1535e-06
-2.36277e-07
9.14415e-07
-2.37907e-07
6.79842e-07
-2.40154e-07
4.47618e-07
-2.432e-07
2.15852e-07
-2.47173e-07
-1.72096e-08
-2.52138e-07
-2.53277e-07
-2.58091e-07
-4.94059e-07
-2.64943e-07
-7.41323e-07
-2.72475e-07
-9.96891e-07
-2.80295e-07
-1.26252e-06
-2.87824e-07
-1.53972e-06
-2.94342e-07
-1.82945e-06
-2.99179e-07
-2.132e-06
-3.02102e-07
-2.44729e-06
-3.03962e-07
-2.77648e-06
-3.07535e-07
-3.12576e-06
-3.17918e-07
-3.5143e-06
-3.40517e-07
-3.98483e-06
-3.73082e-07
-4.60476e-06
-3.9898e-07
-5.43379e-06
-3.83839e-07
-6.45637e-06
-2.60151e-07
-7.25952e-06
-7.0292e-06
6.34147e-08
2.78394e-06
6.46809e-08
3.91294e-06
5.5184e-08
4.35426e-06
5.19943e-08
4.60105e-06
5.07224e-08
4.65803e-06
4.77324e-08
4.54538e-06
4.22154e-08
4.28611e-06
3.4662e-08
3.94994e-06
2.65231e-08
3.58463e-06
1.86896e-08
3.21698e-06
1.17364e-08
2.86266e-06
5.99508e-09
2.52929e-06
1.56336e-09
2.21875e-06
-1.6893e-09
1.92956e-06
-4.1335e-09
1.65847e-06
-6.02506e-09
1.40156e-06
-7.82325e-09
1.1553e-06
-9.9783e-09
9.1657e-07
-1.28882e-08
6.82752e-07
-1.68867e-08
4.51616e-07
-2.22373e-08
2.21202e-07
-2.91403e-08
-1.03066e-08
-3.77112e-08
-2.44706e-07
-4.80026e-08
-4.83767e-07
-5.99833e-08
-7.29343e-07
-7.35079e-08
-9.83366e-07
-8.82751e-08
-1.24776e-06
-1.03798e-07
-1.5242e-06
-1.1941e-07
-1.81384e-06
-1.34403e-07
-2.11701e-06
-1.48362e-07
-2.43333e-06
-1.6168e-07
-2.76316e-06
-1.76702e-07
-3.11074e-06
-1.98163e-07
-3.49283e-06
-2.31984e-07
-3.95101e-06
-2.78256e-07
-4.55849e-06
-3.22275e-07
-5.38977e-06
-3.3219e-07
-6.44646e-06
-2.34127e-07
-7.35759e-06
-7.26333e-06
1.1865e-07
2.66529e-06
1.69027e-07
3.86257e-06
1.9885e-07
4.32443e-06
2.26449e-07
4.57346e-06
2.50033e-07
4.63445e-06
2.62307e-07
4.53311e-06
2.64558e-07
4.28386e-06
2.61585e-07
3.95292e-06
2.55512e-07
3.5907e-06
2.48201e-07
3.22429e-06
2.4097e-07
2.86989e-06
2.3469e-07
2.53557e-06
2.29734e-07
2.22371e-06
2.26088e-07
1.93321e-06
2.23467e-07
1.66109e-06
2.21314e-07
1.40371e-06
2.19065e-07
1.15755e-06
2.16161e-07
9.19473e-07
2.12098e-07
6.86815e-07
2.06449e-07
4.57266e-07
1.98872e-07
2.28779e-07
1.89084e-07
-5.18947e-10
1.7694e-07
-2.32562e-07
1.62318e-07
-4.69145e-07
1.45196e-07
-7.12221e-07
1.25649e-07
-9.63819e-07
1.03876e-07
-1.22598e-06
8.02403e-08
-1.50056e-06
5.53006e-08
-1.7889e-06
2.97406e-08
-2.09145e-06
4.11831e-09
-2.40771e-06
-2.1905e-08
-2.73713e-06
-4.98937e-08
-3.08275e-06
-8.41283e-08
-3.4586e-06
-1.30738e-07
-3.9044e-06
-1.91492e-07
-4.49773e-06
-2.52785e-07
-5.32847e-06
-2.85764e-07
-6.41348e-06
-2.1092e-07
-7.43243e-06
-7.47425e-06
1.73583e-07
2.49171e-06
2.71716e-07
3.76444e-06
3.37961e-07
4.25819e-06
3.93865e-07
4.51755e-06
4.41087e-07
4.58723e-06
4.70665e-07
4.50353e-06
4.8238e-07
4.27214e-06
4.85413e-07
3.94988e-06
4.82579e-07
3.59353e-06
4.76727e-07
3.23014e-06
4.70001e-07
2.87662e-06
4.63783e-07
2.54179e-06
4.58756e-07
2.22874e-06
4.55039e-07
1.93693e-06
4.52318e-07
1.66381e-06
4.50013e-07
1.40601e-06
4.47439e-07
1.16012e-06
4.43917e-07
9.22996e-07
4.38828e-07
6.91903e-07
4.31646e-07
4.64448e-07
4.21937e-07
2.38489e-07
4.09386e-07
1.20317e-08
3.93719e-07
-2.16895e-07
3.748e-07
-4.50226e-07
3.52542e-07
-6.89964e-07
3.26937e-07
-9.38214e-07
2.98069e-07
-1.19712e-06
2.66164e-07
-1.46866e-06
2.31616e-07
-1.75435e-06
1.94971e-07
-2.0548e-06
1.56768e-07
-2.36951e-06
1.17243e-07
-2.69761e-06
7.51004e-08
-3.0406e-06
2.65526e-08
-3.41005e-06
-3.4559e-08
-3.84329e-06
-1.11273e-07
-4.42102e-06
-1.90406e-07
-5.24934e-06
-2.43022e-07
-6.36086e-06
-1.94128e-07
-7.48132e-06
-7.66838e-06
2.26305e-07
2.2654e-06
3.71809e-07
3.61893e-06
4.73471e-07
4.15653e-06
5.57222e-07
4.4338e-06
6.25124e-07
4.51932e-06
6.73491e-07
4.45516e-06
6.96913e-07
4.24872e-06
7.07347e-07
3.93945e-06
7.09028e-07
3.59185e-06
7.05751e-07
3.23342e-06
7.00418e-07
2.88195e-06
6.94943e-07
2.54726e-06
6.90341e-07
2.23334e-06
6.86892e-07
1.94037e-06
6.84333e-07
1.66637e-06
6.82056e-07
1.40829e-06
6.79305e-07
1.16287e-06
6.753e-07
9.27e-07
6.69321e-07
6.97883e-07
6.60741e-07
4.73028e-07
6.4904e-07
2.5019e-07
6.33812e-07
2.72597e-08
6.14745e-07
-1.97828e-07
5.91607e-07
-4.27088e-07
5.64231e-07
-6.62587e-07
5.32522e-07
-9.06505e-07
4.96467e-07
-1.16106e-06
4.56139e-07
-1.42833e-06
4.11723e-07
-1.70994e-06
3.63601e-07
-2.00668e-06
3.12293e-07
-2.3182e-06
2.5815e-07
-2.64347e-06
2.00492e-07
-2.98295e-06
1.36145e-07
-3.3457e-06
5.90067e-08
-3.76615e-06
-3.51703e-08
-4.32684e-06
-1.33873e-07
-5.15064e-06
-2.05073e-07
-6.28966e-06
-1.78881e-07
-7.50752e-06
-7.84726e-06
2.76427e-07
1.98898e-06
4.67793e-07
3.42757e-06
6.03774e-07
4.02055e-06
7.14745e-07
4.32283e-06
8.02835e-07
4.43124e-06
8.70586e-07
4.38741e-06
9.08509e-07
4.2108e-06
9.27989e-07
3.91997e-06
9.35725e-07
3.58412e-06
9.36458e-07
3.23269e-06
9.33721e-07
2.88469e-06
9.29917e-07
2.55107e-06
9.26408e-07
2.23685e-06
9.23693e-07
1.94309e-06
9.21622e-07
1.66844e-06
9.19614e-07
1.4103e-06
9.16878e-07
1.16561e-06
9.12561e-07
9.31317e-07
9.05852e-07
7.04592e-07
8.96031e-07
4.82849e-07
8.82484e-07
2.63737e-07
8.64719e-07
4.50251e-08
8.42357e-07
-1.75466e-07
8.15069e-07
-3.998e-07
7.82601e-07
-6.30119e-07
7.44768e-07
-8.68672e-07
7.0141e-07
-1.1177e-06
6.52414e-07
-1.37934e-06
5.97799e-07
-1.65532e-06
5.37751e-07
-1.94663e-06
4.72625e-07
-2.25308e-06
4.02865e-07
-2.57371e-06
3.28341e-07
-2.90842e-06
2.46666e-07
-3.26403e-06
1.51989e-07
-3.67147e-06
3.9014e-08
-4.21387e-06
-8.03415e-08
-5.03128e-06
-1.71734e-07
-6.19827e-06
-1.67424e-07
-7.51183e-06
-8.01469e-06
3.21703e-07
1.66727e-06
5.56779e-07
3.19249e-06
7.26039e-07
3.85128e-06
8.62674e-07
4.1862e-06
9.73184e-07
4.32073e-06
1.05995e-06
4.30064e-06
1.11565e-06
4.1551e-06
1.14683e-06
3.88879e-06
1.16281e-06
3.56813e-06
1.16947e-06
3.22603e-06
1.17096e-06
2.8832e-06
1.17014e-06
2.55189e-06
1.16872e-06
2.23826e-06
1.16748e-06
1.94433e-06
1.16643e-06
1.66949e-06
1.16507e-06
1.41165e-06
1.16264e-06
1.16804e-06
1.15825e-06
9.35709e-07
1.15102e-06
7.11823e-07
1.14015e-06
4.93721e-07
1.12492e-06
2.78959e-07
1.10477e-06
6.5176e-08
1.07923e-06
-1.49923e-07
1.04786e-06
-3.68425e-07
1.01029e-06
-5.92552e-07
9.66237e-07
-8.2462e-07
9.15398e-07
-1.06686e-06
8.57476e-07
-1.32141e-06
7.92227e-07
-1.59007e-06
7.19561e-07
-1.87397e-06
6.39708e-07
-2.17322e-06
5.53249e-07
-2.48725e-06
4.6051e-07
-2.81568e-06
3.59865e-07
-3.16339e-06
2.46175e-07
-3.55778e-06
1.1402e-07
-4.08171e-06
-2.44864e-08
-4.89277e-06
-1.34272e-07
-6.08848e-06
-1.53377e-07
-7.49272e-06
-8.16806e-06
3.57379e-07
1.30989e-06
6.33254e-07
2.91662e-06
8.35896e-07
3.64864e-06
9.98623e-07
4.02347e-06
1.13244e-06
4.18691e-06
1.23844e-06
4.19464e-06
1.31485e-06
4.07869e-06
1.36164e-06
3.842e-06
1.38917e-06
3.5406e-06
1.4045e-06
3.21069e-06
1.41253e-06
2.87517e-06
1.41661e-06
2.54782e-06
1.41881e-06
2.23606e-06
1.4202e-06
1.94294e-06
1.42102e-06
1.66867e-06
1.42094e-06
1.41173e-06
1.41928e-06
1.1697e-06
1.41516e-06
9.39824e-07
1.40769e-06
7.19294e-07
1.39601e-06
5.05406e-07
1.37931e-06
2.95653e-07
1.35695e-06
8.75403e-08
1.32835e-06
-1.2132e-07
1.29294e-06
-3.33018e-07
1.25025e-06
-5.49865e-07
1.19985e-06
-7.74217e-07
1.14125e-06
-1.00827e-06
1.07396e-06
-1.25412e-06
9.97463e-07
-1.51358e-06
9.11436e-07
-1.78794e-06
8.15908e-07
-2.07769e-06
7.11464e-07
-2.3828e-06
5.98864e-07
-2.70308e-06
4.77364e-07
-3.04188e-06
3.42607e-07
-3.42303e-06
1.89126e-07
-3.92823e-06
2.81504e-08
-4.7318e-06
-1.04841e-07
-5.95549e-06
-1.45182e-07
-7.45238e-06
-8.31324e-06
3.74492e-07
9.35403e-07
6.88817e-07
2.60229e-06
9.2779e-07
3.40967e-06
1.11773e-06
3.83353e-06
1.27485e-06
4.02979e-06
1.40306e-06
4.06643e-06
1.50214e-06
3.97961e-06
1.56893e-06
3.77521e-06
1.61232e-06
3.49721e-06
1.64012e-06
3.18289e-06
1.65793e-06
2.85736e-06
1.6696e-06
2.53615e-06
1.67762e-06
2.22804e-06
1.68339e-06
1.93718e-06
1.68743e-06
1.66463e-06
1.68964e-06
1.40952e-06
1.68949e-06
1.16985e-06
1.68621e-06
9.4311e-07
1.67891e-06
7.26588e-07
1.66674e-06
5.17585e-07
1.64881e-06
3.13576e-07
1.62442e-06
1.11928e-07
1.59287e-06
-8.97647e-08
1.55345e-06
-2.93598e-07
1.50557e-06
-5.01984e-07
1.44861e-06
-7.17255e-07
1.38188e-06
-9.41541e-07
1.30466e-06
-1.17689e-06
1.21617e-06
-1.42509e-06
1.11583e-06
-1.6876e-06
1.00345e-06
-1.96531e-06
8.79561e-07
-2.25891e-06
7.45277e-07
-2.5688e-06
6.00895e-07
-2.8975e-06
4.42799e-07
-3.26493e-06
2.65567e-07
-3.751e-06
7.90521e-08
-4.54529e-06
-7.44173e-08
-5.80202e-06
-1.33614e-07
-7.39318e-06
-8.44686e-06
3.56499e-07
5.78904e-07
7.14131e-07
2.24466e-06
9.93721e-07
3.13008e-06
1.21335e-06
3.61391e-06
1.3947e-06
3.84844e-06
1.54751e-06
3.91362e-06
1.67179e-06
3.85534e-06
1.76338e-06
3.68361e-06
1.82802e-06
3.43258e-06
1.87326e-06
3.13765e-06
1.90521e-06
2.82541e-06
1.92821e-06
2.51314e-06
1.94517e-06
2.21108e-06
1.95784e-06
1.9245e-06
1.9671e-06
1.65537e-06
1.97315e-06
1.40347e-06
1.97568e-06
1.16732e-06
1.97408e-06
9.44703e-07
1.9676e-06
7.3307e-07
1.95538e-06
5.2981e-07
1.93654e-06
3.32408e-07
1.91034e-06
1.38129e-07
1.87591e-06
-5.53327e-08
1.83245e-06
-2.50139e-07
1.77921e-06
-4.48745e-07
1.71536e-06
-6.53402e-07
1.63997e-06
-8.66155e-07
1.55207e-06
-1.089e-06
1.45064e-06
-1.32366e-06
1.33483e-06
-1.57179e-06
1.20425e-06
-1.83474e-06
1.05942e-06
-2.11407e-06
9.01559e-07
-2.41094e-06
7.31958e-07
-2.7279e-06
5.48079e-07
-3.08105e-06
3.44955e-07
-3.54788e-06
1.32024e-07
-4.33235e-06
-4.80929e-08
-5.62191e-06
-1.28668e-07
-7.31261e-06
-8.57553e-06
2.88141e-07
2.90763e-07
7.03476e-07
1.82932e-06
1.02409e-06
2.80947e-06
1.27638e-06
3.36161e-06
1.48479e-06
3.64002e-06
1.66427e-06
3.73414e-06
1.81701e-06
3.7026e-06
1.93828e-06
3.56234e-06
2.03032e-06
3.34054e-06
2.09912e-06
3.06885e-06
2.15073e-06
2.77379e-06
2.1899e-06
2.47398e-06
2.21993e-06
2.18106e-06
2.24296e-06
1.90147e-06
2.26027e-06
1.63806e-06
2.27238e-06
1.39136e-06
2.27931e-06
1.16039e-06
2.28072e-06
9.433e-07
2.276e-06
7.37787e-07
2.2644e-06
5.41412e-07
2.24512e-06
3.5169e-07
2.21735e-06
1.65898e-07
2.18008e-06
-1.80619e-08
2.1325e-06
-2.02565e-07
2.07364e-06
-3.89878e-07
2.00242e-06
-5.82186e-07
1.91769e-06
-7.81427e-07
1.81822e-06
-9.89522e-07
1.70272e-06
-1.20816e-06
1.57018e-06
-1.43925e-06
1.42001e-06
-1.68458e-06
1.25269e-06
-1.94675e-06