/*--------------------------------*- C++ -*----------------------------------*\
  =========                 |
  \\      /  F ield         | OpenFOAM: The Open Source CFD Toolbox
   \\    /   O peration     | Website:  https://openfoam.org
    \\  /    A nd           | Version:  12
     \\/     M anipulation  |
\*---------------------------------------------------------------------------*/
FoamFile
{
    format      ascii;
    class       volVectorField;
    location    "6";
    object      U;
}
// * * * * * * * * * * * * * * * * * * * * * * * * * * * * * * * * * * * * * //

dimensions      [0 1 -1 0 0 0 0];

internalField   nonuniform List<vector> 
1600
(
(0.00116736 -0.00101648 0)
(0.00601475 -0.00158829 0)
(0.0106889 -0.00132558 0)
(0.013574 -0.000280742 0)
(0.0139661 0.000292788 0)
(0.0134744 0.000127506 0)
(0.0127795 -0.000578711 0)
(0.0126056 -0.00111491 0)
(0.0122174 -0.00116422 0)
(0.0111061 -0.000948895 0)
(0.00863657 -0.000772205 0)
(0.00261175 -0.000167487 0)
(-0.00791902 0.00161852 0)
(-0.019714 0.00686756 0)
(-0.0424466 0.012664 0)
(-0.0677523 0.0133395 0)
(-0.0895834 0.0122471 0)
(-0.109058 0.0107504 0)
(-0.12495 0.00905969 0)
(-0.138196 0.00743624 0)
(-0.148344 0.00583613 0)
(-0.155935 0.00431094 0)
(-0.160447 0.00284549 0)
(-0.162365 0.00146016 0)
(-0.161924 -0.00071006 0)
(-0.157635 -0.00231855 0)
(-0.150686 -0.00452902 0)
(-0.139566 -0.00638572 0)
(-0.125128 -0.00861543 0)
(-0.106901 -0.0108254 0)
(-0.0854887 -0.0130956 0)
(-0.0611854 -0.0146179 0)
(-0.0353428 -0.0149336 0)
(-0.00878692 -0.0135527 0)
(0.0126326 -0.0115175 0)
(0.0286 -0.00440314 0)
(0.0301177 0.00314843 0)
(0.0238347 0.0051109 0)
(0.0113636 0.00429508 0)
(0.00237804 0.00293559 0)
(0.00211986 -0.00595109 0)
(0.0103536 -0.00891635 0)
(0.0158017 -0.00660424 0)
(0.0188718 -0.00267946 0)
(0.0192255 0.00032904 0)
(0.0173145 0.00149333 0)
(0.0138734 0.00138096 0)
(0.00912454 0.00162743 0)
(0.00185531 0.00305303 0)
(-0.00984393 0.00562113 0)
(-0.0266394 0.0104252 0)
(-0.0520893 0.0190074 0)
(-0.0823011 0.0276873 0)
(-0.109393 0.0338855 0)
(-0.13168 0.0345186 0)
(-0.150744 0.0320736 0)
(-0.166545 0.0283915 0)
(-0.179821 0.0241304 0)
(-0.190334 0.0198505 0)
(-0.198615 0.0156365 0)
(-0.204452 0.0115665 0)
(-0.208177 0.00756444 0)
(-0.209631 0.00358471 0)
(-0.20897 -0.00052801 0)
(-0.205959 -0.00501138 0)
(-0.200575 -0.00970094 0)
(-0.192536 -0.0147247 0)
(-0.181596 -0.0200523 0)
(-0.167462 -0.0256866 0)
(-0.149456 -0.0311797 0)
(-0.128123 -0.0362665 0)
(-0.104144 -0.0403813 0)
(-0.0775278 -0.0414942 0)
(-0.0497834 -0.0385269 0)
(-0.0230426 -0.030349 0)
(0.000134829 -0.0144045 0)
(0.0160419 0.00363601 0)
(0.0161864 0.0112526 0)
(0.00962686 0.0136025 0)
(0.00148509 0.0103201 0)
(0.00334503 -0.0137017 0)
(0.0113914 -0.016022 0)
(0.0145709 -0.0106864 0)
(0.0153458 -0.00340377 0)
(0.01335 0.00206041 0)
(0.00871342 0.00510652 0)
(0.000489057 0.00724083 0)
(-0.0122673 0.0113408 0)
(-0.0311602 0.019339 0)
(-0.0570488 0.03055 0)
(-0.0864776 0.0418023 0)
(-0.113691 0.0489299 0)
(-0.13733 0.0522395 0)
(-0.156002 0.0522722 0)
(-0.171251 0.0493636 0)
(-0.183551 0.0447736 0)
(-0.193476 0.0391576 0)
(-0.20148 0.0331648 0)
(-0.207755 0.027115 0)
(-0.212532 0.0211847 0)
(-0.215958 0.0150853 0)
(-0.217893 0.00935151 0)
(-0.218311 0.00352967 0)
(-0.21715 -0.00233394 0)
(-0.214359 -0.00851911 0)
(-0.209948 -0.0151028 0)
(-0.203776 -0.0224303 0)
(-0.19559 -0.0304981 0)
(-0.18525 -0.0394733 0)
(-0.172407 -0.0487583 0)
(-0.156584 -0.0577974 0)
(-0.137181 -0.0650631 0)
(-0.114463 -0.0684998 0)
(-0.0890554 -0.0665618 0)
(-0.0617477 -0.056353 0)
(-0.0336875 -0.0360888 0)
(-0.00668945 -0.00639321 0)
(0.00157413 0.011231 0)
(0.00185089 0.0177533 0)
(-0.000172705 0.0138043 0)
(0.00392499 -0.0221087 0)
(0.00840142 -0.0203319 0)
(0.00858344 -0.0111004 0)
(0.0056721 -0.000812763 0)
(-0.000131784 0.0073215 0)
(-0.0100574 0.0143345 0)
(-0.0255127 0.0224676 0)
(-0.0469506 0.0334401 0)
(-0.0731439 0.0465036 0)
(-0.101515 0.0585872 0)
(-0.127335 0.0667273 0)
(-0.147475 0.0698676 0)
(-0.163391 0.0694043 0)
(-0.175328 0.0659508 0)
(-0.184969 0.0606074 0)
(-0.192414 0.054143 0)
(-0.198396 0.0470453 0)
(-0.203356 0.0394295 0)
(-0.207511 0.0317898 0)
(-0.21067 0.0242717 0)
(-0.212712 0.0171849 0)
(-0.213654 0.0100167 0)
(-0.213537 0.00287552 0)
(-0.212402 -0.00444685 0)
(-0.210216 -0.0120108 0)
(-0.20687 -0.0200477 0)
(-0.202289 -0.0287148 0)
(-0.196338 -0.0381477 0)
(-0.188853 -0.0483986 0)
(-0.179745 -0.0597824 0)
(-0.168911 -0.0718211 0)
(-0.156033 -0.0836042 0)
(-0.140489 -0.0926391 0)
(-0.120224 -0.0949523 0)
(-0.0947119 -0.0864398 0)
(-0.0650559 -0.0650361 0)
(-0.0293828 -0.0276772 0)
(-0.00723994 0.0038331 0)
(-0.00202426 0.0156843 0)
(-0.000178801 0.0134148 0)
(0.00240015 -0.0265448 0)
(0.00316097 -0.0204347 0)
(-0.000988149 -0.00701941 0)
(-0.00790261 0.00611961 0)
(-0.018547 0.0182778 0)
(-0.0340443 0.0305485 0)
(-0.0550076 0.0443311 0)
(-0.0801461 0.059335 0)
(-0.106412 0.0729286 0)
(-0.130088 0.0820874 0)
(-0.148052 0.0854157 0)
(-0.161576 0.0846415 0)
(-0.171902 0.0809278 0)
(-0.179478 0.0750099 0)
(-0.185473 0.0678255 0)
(-0.190225 0.059592 0)
(-0.194221 0.0510606 0)
(-0.197152 0.0426207 0)
(-0.198955 0.0343263 0)
(-0.199848 0.0261399 0)
(-0.20015 0.0181364 0)
(-0.199868 0.0101892 0)
(-0.199099 0.00226558 0)
(-0.197814 -0.00583879 0)
(-0.19591 -0.0142596 0)
(-0.193376 -0.0232367 0)
(-0.190205 -0.0329611 0)
(-0.186335 -0.043609 0)
(-0.181676 -0.055254 0)
(-0.176071 -0.0678047 0)
(-0.169259 -0.0809596 0)
(-0.160813 -0.094008 0)
(-0.150513 -0.10654 0)
(-0.137329 -0.115318 0)
(-0.118646 -0.114884 0)
(-0.0916803 -0.0987266 0)
(-0.0568193 -0.0641957 0)
(-0.0171173 -0.0142654 0)
(-0.00204422 0.0102617 0)
(0.000806406 0.0126431 0)
(-0.000342338 -0.0274027 0)
(-0.00409507 -0.0156045 0)
(-0.0121634 0.000931643 0)
(-0.0231137 0.0176306 0)
(-0.0381181 0.0342145 0)
(-0.0575899 0.0512002 0)
(-0.080707 0.068401 0)
(-0.10494 0.0838627 0)
(-0.126871 0.0947634 0)
(-0.143468 0.09908 0)
(-0.155333 0.0983071 0)
(-0.16432 0.0944323 0)
(-0.170758 0.0881698 0)
(-0.175441 0.0804034 0)
(-0.178914 0.0716917 0)
(-0.180954 0.0626188 0)
(-0.182163 0.0533733 0)
(-0.182555 0.0441674 0)
(-0.182605 0.0351476 0)
(-0.182416 0.0264033 0)
(-0.181833 0.0179248 0)
(-0.180958 0.00958134 0)
(-0.179769 0.00128092 0)
(-0.178269 -0.0071541 0)
(-0.176444 -0.0158949 0)
(-0.174343 -0.0251721 0)
(-0.171999 -0.0352015 0)
(-0.169438 -0.0462156 0)
(-0.166657 -0.0584067 0)
(-0.16361 -0.0718623 0)
(-0.160136 -0.0864094 0)
(-0.155867 -0.101454 0)
(-0.150107 -0.115741 0)
(-0.14171 -0.127467 0)
(-0.129255 -0.134189 0)
(-0.10993 -0.12878 0)
(-0.0807514 -0.103594 0)
(-0.0383094 -0.052616 0)
(-0.00511254 -0.00252665 0)
(0.0016215 0.0119416 0)
(-0.00342994 -0.0224545 0)
(-0.0114619 -0.00688368 0)
(-0.0229539 0.0126725 0)
(-0.0374257 0.0328925 0)
(-0.0555575 0.0533378 0)
(-0.0766063 0.0732122 0)
(-0.0988541 0.091053 0)
(-0.119493 0.104354 0)
(-0.135343 0.110699 0)
(-0.14615 0.110664 0)
(-0.153954 0.106924 0)
(-0.159387 0.100567 0)
(-0.162861 0.0924237 0)
(-0.16494 0.0832541 0)
(-0.16587 0.0734798 0)
(-0.166081 0.0635133 0)
(-0.165834 0.0536209 0)
(-0.165264 0.0439881 0)
(-0.164532 0.0346867 0)
(-0.163601 0.0256974 0)
(-0.162483 0.0169715 0)
(-0.161198 0.00840133 0)
(-0.159741 -0.000123374 0)
(-0.158117 -0.00874866 0)
(-0.156342 -0.0176465 0)
(-0.154466 -0.0270132 0)
(-0.152549 -0.0370545 0)
(-0.15066 -0.0479918 0)
(-0.148859 -0.0600435 0)
(-0.147176 -0.0733914 0)
(-0.145569 -0.0881018 0)
(-0.143832 -0.103963 0)
(-0.1414 -0.120249 0)
(-0.137158 -0.135273 0)
(-0.129407 -0.146239 0)
(-0.11617 -0.149172 0)
(-0.0951769 -0.136551 0)
(-0.0624445 -0.0980616 0)
(-0.0145995 -0.024494 0)
(0.00253837 0.0108123 0)
(-0.00617019 -0.0136072 0)
(-0.0175958 0.00569834 0)
(-0.0317998 0.0275522 0)
(-0.0489938 0.0507086 0)
(-0.068483 0.0734856 0)
(-0.0890472 0.0940811 0)
(-0.108715 0.110392 0)
(-0.124502 0.119797 0)
(-0.13493 0.121471 0)
(-0.141988 0.11833 0)
(-0.146734 0.112171 0)
(-0.149498 0.103862 0)
(-0.150789 0.0942535 0)
(-0.151074 0.0839692 0)
(-0.150663 0.0734331 0)
(-0.149896 0.0629909 0)
(-0.148916 0.052822 0)
(-0.147824 0.043029 0)
(-0.146656 0.0336083 0)
(-0.145401 0.0245125 0)
(-0.144069 0.0156699 0)
(-0.142645 0.0069772 0)
(-0.141123 -0.00167084 0)
(-0.139499 -0.0104063 0)
(-0.137794 -0.0193835 0)
(-0.136055 -0.0287731 0)
(-0.134352 -0.0387643 0)
(-0.132779 -0.0495674 0)
(-0.131436 -0.0614041 0)
(-0.130412 -0.0744848 0)
(-0.129735 -0.0889522 0)
(-0.129297 -0.104783 0)
(-0.128713 -0.121617 0)
(-0.127061 -0.138499 0)
(-0.122804 -0.153338 0)
(-0.114065 -0.162259 0)
(-0.0990526 -0.159201 0)
(-0.0745902 -0.134808 0)
(-0.0329268 -0.0682163 0)
(0.000212613 -0.00027437 0)
(-0.00786863 -0.00113609 0)
(-0.0220558 0.0212175 0)
(-0.0381469 0.0446236 0)
(-0.0566104 0.069402 0)
(-0.0760242 0.0928554 0)
(-0.0949721 0.112576 0)
(-0.111247 0.125879 0)
(-0.122007 0.130427 0)
(-0.129 0.128665 0)
(-0.133427 0.123052 0)
(-0.135954 0.114909 0)
(-0.136906 0.10509 0)
(-0.136847 0.0944135 0)
(-0.136138 0.083424 0)
(-0.135068 0.0724904 0)
(-0.133854 0.0618487 0)
(-0.132579 0.0515969 0)
(-0.131301 0.0417671 0)
(-0.130026 0.0323151 0)
(-0.128741 0.0231805 0)
(-0.127428 0.0142833 0)
(-0.126054 0.00551966 0)
(-0.124599 -0.00321324 0)
(-0.123051 -0.012026 0)
(-0.121423 -0.0210505 0)
(-0.119755 -0.0304264 0)
(-0.118114 -0.0403145 0)
(-0.116602 -0.0509033 0)
(-0.115345 -0.0624132 0)
(-0.114473 -0.0750916 0)
(-0.114081 -0.089178 0)
(-0.114163 -0.10482 0)
(-0.114493 -0.121927 0)
(-0.11441 -0.139941 0)
(-0.112523 -0.157392 0)
(-0.10696 -0.171077 0)
(-0.0963966 -0.174976 0)
(-0.0782417 -0.161961 0)
(-0.0492062 -0.113805 0)
(-0.00705736 -0.0151139 0)
(-0.00885469 0.0136333 0)
(-0.0246924 0.0383786 0)
(-0.0415584 0.0625638 0)
(-0.0602414 0.0877765 0)
(-0.0787113 0.110842 0)
(-0.095579 0.128469 0)
(-0.107343 0.137016 0)
(-0.11504 0.137843 0)
(-0.119651 0.133334 0)
(-0.122265 0.125687 0)
(-0.123308 0.115965 0)
(-0.123191 0.105043 0)
(-0.122421 0.0936766 0)
(-0.121268 0.082301 0)
(-0.119967 0.0712011 0)
(-0.118649 0.0605177 0)
(-0.117368 0.0502853 0)
(-0.116154 0.0404883 0)
(-0.114987 0.0310589 0)
(-0.113841 0.0219206 0)
(-0.112677 0.0129844 0)
(-0.111455 0.00415537 0)
(-0.110143 -0.00466837 0)
(-0.108727 -0.0135784 0)
(-0.107208 -0.0226802 0)
(-0.105613 -0.0320869 0)
(-0.103998 -0.0419244 0)
(-0.102452 -0.0523468 0)
(-0.101101 -0.0635472 0)
(-0.100089 -0.0757697 0)
(-0.0995552 -0.0893042 0)
(-0.0995736 -0.104441 0)
(-0.100062 -0.121358 0)
(-0.100624 -0.139925 0)
(-0.100164 -0.159329 0)
(-0.0966907 -0.177017 0)
(-0.089181 -0.186468 0)
(-0.0752306 -0.182376 0)
(-0.0528972 -0.148161 0)
(-0.0156979 -0.0430489 0)
(-0.00928147 0.0295511 0)
(-0.025657 0.0562435 0)
(-0.0423511 0.0804529 0)
(-0.0604265 0.105295 0)
(-0.0775283 0.126972 0)
(-0.0912081 0.140843 0)
(-0.0995898 0.145222 0)
(-0.105425 0.143056 0)
(-0.108343 0.136277 0)
(-0.109804 0.126968 0)
(-0.109956 0.116032 0)
(-0.109316 0.104354 0)
(-0.108264 0.0925672 0)
(-0.107017 0.0810095 0)
(-0.10575 0.0698806 0)
(-0.104545 0.0592465 0)
(-0.103432 0.0490937 0)
(-0.102411 0.0393673 0)
(-0.101448 0.0299805 0)
(-0.100504 0.0208442 0)
(-0.0995333 0.0118673 0)
(-0.0984941 0.00296207 0)
(-0.0973575 -0.00596509 0)
(-0.0961024 -0.0149924 0)
(-0.094722 -0.0242026 0)
(-0.093233 -0.0336865 0)
(-0.0916726 -0.0435399 0)
(-0.0901104 -0.0538831 0)
(-0.0886503 -0.0648756 0)
(-0.087431 -0.0767406 0)
(-0.0866073 -0.0897833 0)
(-0.0863051 -0.10438 0)
(-0.0865481 -0.120901 0)
(-0.0871427 -0.139525 0)
(-0.0873659 -0.160006 0)
(-0.0853968 -0.180868 0)
(-0.0795477 -0.195524 0)
(-0.0687822 -0.198241 0)
(-0.0493323 -0.17661 0)
(-0.0184718 -0.0913239 0)
(-0.00907512 0.0454563 0)
(-0.0251047 0.0738483 0)
(-0.0409631 0.0975232 0)
(-0.0577964 0.121289 0)
(-0.0732041 0.140886 0)
(-0.0833837 0.150281 0)
(-0.0900483 0.151577 0)
(-0.0942961 0.146737 0)
(-0.0961463 0.138107 0)
(-0.0969129 0.127454 0)
(-0.0966162 0.115615 0)
(-0.0958075 0.103429 0)
(-0.0947454 0.0914043 0)
(-0.0936093 0.0797905 0)
(-0.0925242 0.068712 0)
(-0.0915383 0.058174 0)
(-0.0906598 0.0481221 0)
(-0.0898675 0.0384708 0)
(-0.0891208 0.0291205 0)
(-0.088379 0.0199756 0)
(-0.0875974 0.0109474 0)
(-0.0867378 0.00195562 0)
(-0.0857763 -0.00708434 0)
(-0.0846902 -0.016241 0)
(-0.0834695 -0.0255811 0)
(-0.0821198 -0.0351777 0)
(-0.0806614 -0.0451034 0)
(-0.0791393 -0.0554476 0)
(-0.077629 -0.0663331 0)
(-0.0762441 -0.0779475 0)
(-0.075132 -0.090582 0)
(-0.074446 -0.104658 0)
(-0.0742808 -0.120691 0)
(-0.0745733 -0.139128 0)
(-0.0749255 -0.160097 0)
(-0.0739484 -0.182971 0)
(-0.069142 -0.203196 0)
(-0.0610074 -0.210668 0)
(-0.0442164 -0.198452 0)
(-0.0155289 -0.124276 0)
(-0.00837877 0.0607236 0)
(-0.0233711 0.0905759 0)
(-0.0379584 0.113376 0)
(-0.0533871 0.135755 0)
(-0.0662606 0.152068 0)
(-0.0739277 0.157829 0)
(-0.0795071 0.156447 0)
(-0.0824985 0.149397 0)
(-0.0837499 0.139258 0)
(-0.0841316 0.127536 0)
(-0.0836842 0.115035 0)
(-0.082916 0.102516 0)
(-0.0819938 0.0903686 0)
(-0.0810698 0.0787706 0)
(-0.0802258 0.0677784 0)
(-0.0794854 0.0573468 0)
(-0.0788399 0.0473878 0)
(-0.0782589 0.0377955 0)
(-0.077703 0.0284636 0)
(-0.0771354 0.0192958 0)
(-0.0765186 0.0102074 0)
(-0.0758213 0.00112456 0)
(-0.0750242 -0.0080288 0)
(-0.0741075 -0.0173155 0)
(-0.0730591 -0.0267924 0)
(-0.0718768 -0.0365206 0)
(-0.0705673 -0.0465575 0)
(-0.0691533 -0.0569698 0)
(-0.0676817 -0.0678484 0)
(-0.0662334 -0.0793413 0)
(-0.0649314 -0.0917036 0)
(-0.0639314 -0.105357 0)
(-0.0633757 -0.120908 0)
(-0.0632985 -0.139037 0)
(-0.0634812 -0.160179 0)
(-0.0629646 -0.184173 0)
(-0.0593139 -0.209085 0)
(-0.0523444 -0.221854 0)
(-0.0386713 -0.2181 0)
(-0.0136543 -0.156628 0)
(-0.00731088 0.0746209 0)
(-0.0208639 0.105908 0)
(-0.0338645 0.127636 0)
(-0.047635 0.148271 0)
(-0.0577905 0.160931 0)
(-0.0638065 0.163986 0)
(-0.0685103 0.160243 0)
(-0.0706157 0.151389 0)
(-0.0715591 0.140025 0)
(-0.0717589 0.127464 0)
(-0.0713404 0.114484 0)
(-0.0707184 0.101746 0)
(-0.0700044 0.0895449 0)
(-0.0693217 0.0779945 0)
(-0.0687189 0.0670922 0)
(-0.068203 0.056753 0)
(-0.0677567 0.046864 0)
(-0.0673493 0.0373075 0)
(-0.0669477 0.0279755 0)
(-0.0665224 0.0187739 0)
(-0.0660452 0.00962245 0)
(-0.065492 0.000451891 0)
(-0.0648486 -0.00880693 0)
(-0.0640988 -0.0182139 0)
(-0.0632301 -0.0278215 0)
(-0.0622347 -0.0376837 0)
(-0.0611092 -0.0478492 0)
(-0.0598591 -0.0583693 0)
(-0.0585065 -0.0693105 0)
(-0.0571013 -0.0807838 0)
(-0.0557347 -0.0929994 0)
(-0.0545451 -0.106347 0)
(-0.0536954 -0.121471 0)
(-0.0532906 -0.139228 0)
(-0.0532294 -0.160378 0)
(-0.0529203 -0.185224 0)
(-0.0504639 -0.212548 0)
(-0.0441453 -0.231552 0)
(-0.0335829 -0.233079 0)
(-0.0111906 -0.181112 0)
(-0.00612488 0.0868903 0)
(-0.0178393 0.119481 0)
(-0.0290538 0.139999 0)
(-0.0408867 0.158631 0)
(-0.0486268 0.168074 0)
(-0.0537949 0.169072 0)
(-0.0574547 0.163244 0)
(-0.0590078 0.152944 0)
(-0.0597878 0.140599 0)
(-0.0599328 0.127388 0)
(-0.0596321 0.114059 0)
(-0.0591958 0.101175 0)
(-0.0587032 0.0889535 0)
(-0.0582476 0.0774546 0)
(-0.0578549 0.0666264 0)
(-0.0575231 0.0563543 0)
(-0.0572334 0.0465089 0)
(-0.0569607 0.0369671 0)
(-0.0566799 0.0276217 0)
(-0.0563702 0.018382 0)
(-0.0560126 0.00917144 0)
(-0.05559 -7.64585e-05 0)
(-0.0550923 -0.00942617 0)
(-0.0545072 -0.0189366 0)
(-0.0538226 -0.0286599 0)
(-0.0530278 -0.038647 0)
(-0.052112 -0.0489431 0)
(-0.0510685 -0.0595907 0)
(-0.0499005 -0.0706386 0)
(-0.0486323 -0.0821672 0)
(-0.0473248 -0.0943404 0)
(-0.0460909 -0.107497 0)
(-0.0450915 -0.122267 0)
(-0.0444775 -0.139622 0)
(-0.044241 -0.160636 0)
(-0.0440215 -0.185986 0)
(-0.042333 -0.215256 0)
(-0.036799 -0.240304 0)
(-0.0292923 -0.246765 0)
(-0.00972956 -0.204014 0)
(-0.00468797 0.0968775 0)
(-0.0144844 0.131002 0)
(-0.0238877 0.150458 0)
(-0.0336457 0.166956 0)
(-0.0394573 0.173875 0)
(-0.0438746 0.173123 0)
(-0.0466218 0.165639 0)
(-0.0478393 0.154207 0)
(-0.0485239 0.141089 0)
(-0.048685 0.12738 0)
(-0.0485315 0.113795 0)
(-0.0482806 0.100807 0)
(-0.0479902 0.0885771 0)
(-0.0477262 0.0771171 0)
(-0.0475012 0.0663386 0)
(-0.0473101 0.0561067 0)
(-0.0471379 0.0462822 0)
(-0.0469669 0.03674 0)
(-0.0467811 0.027375 0)
(-0.0465679 0.0180995 0)
(-0.0463159 0.00883953 0)
(-0.0460146 -0.000470081 0)
(-0.0456573 -0.00989142 0)
(-0.0452351 -0.0194837 0)
(-0.0447374 -0.0293012 0)
(-0.044152 -0.0393954 0)
(-0.0434639 -0.0498118 0)
(-0.0426578 -0.0605891 0)
(-0.0417232 -0.0717648 0)
(-0.0406646 -0.0833947 0)
(-0.0395181 -0.0956006 0)
(-0.0383706 -0.108664 0)
(-0.0373727 -0.123169 0)
(-0.0367072 -0.140135 0)
(-0.0364517 -0.160895 0)
(-0.0363427 -0.186472 0)
(-0.035291 -0.216788 0)
(-0.0312436 -0.246668 0)
(-0.0247128 -0.257985 0)
(-0.00817408 -0.222012 0)
(-0.00339107 0.10489 0)
(-0.0110032 0.140485 0)
(-0.0186307 0.159037 0)
(-0.0262785 0.173432 0)
(-0.0304982 0.17845 0)
(-0.0341549 0.176298 0)
(-0.0361672 0.167552 0)
(-0.0371576 0.155261 0)
(-0.0377755 0.14155 0)
(-0.0379833 0.127468 0)
(-0.0379717 0.113691 0)
(-0.0378841 0.100623 0)
(-0.0377616 0.0883805 0)
(-0.0376476 0.0769396 0)
(-0.0375482 0.0661858 0)
(-0.0374596 0.055971 0)
(-0.0373729 0.0461508 0)
(-0.0372788 0.0366002 0)
(-0.0371696 0.0272158 0)
(-0.0370396 0.0179123 0)
(-0.0368842 0.00861693 0)
(-0.0366982 -0.000735276 0)
(-0.0364777 -0.0102059 0)
(-0.0362172 -0.0198555 0)
(-0.0359077 -0.0297415 0)
(-0.0355374 -0.0399189 0)
(-0.0350893 -0.0504361 0)
(-0.0345433 -0.0613323 0)
(-0.0338791 -0.0726385 0)
(-0.0330865 -0.0843915 0)
(-0.0321806 -0.0966752 0)
(-0.0312236 -0.109711 0)
(-0.0303472 -0.12402 0)
(-0.0297472 -0.140623 0)
(-0.029571 -0.161054 0)
(-0.0296361 -0.186723 0)
(-0.0290972 -0.21802 0)
(-0.0262358 -0.251729 0)
(-0.0216326 -0.267911 0)
(-0.00709154 -0.238788 0)
(-0.00180042 0.110246 0)
(-0.00746158 0.147759 0)
(-0.0132997 0.165639 0)
(-0.018958 0.178246 0)
(-0.0218902 0.181946 0)
(-0.0247353 0.178713 0)
(-0.0261433 0.169067 0)
(-0.0269454 0.156153 0)
(-0.0275025 0.142005 0)
(-0.0277601 0.127647 0)
(-0.0278675 0.113725 0)
(-0.027912 0.100588 0)
(-0.0279194 0.0883237 0)
(-0.0279162 0.0768812 0)
(-0.0279063 0.0661302 0)
(-0.0278897 0.0559152 0)
(-0.0278644 0.0460897 0)
(-0.0278291 0.0365289 0)
(-0.0277835 0.0271308 0)
(-0.0277279 0.0178111 0)
(-0.027663 0.00849735 0)
(-0.0275883 -0.000876113 0)
(-0.0275024 -0.0103719 0)
(-0.0274023 -0.0200522 0)
(-0.0272816 -0.0299786 0)
(-0.0271297 -0.0402106 0)
(-0.0269298 -0.0508021 0)
(-0.0266596 -0.0617957 0)
(-0.0262937 -0.0732206 0)
(-0.0258112 -0.0851002 0)
(-0.0252115 -0.0974861 0)
(-0.0245362 -0.110543 0)
(-0.0238971 -0.124714 0)
(-0.0234863 -0.140976 0)
(-0.0234915 -0.160988 0)
(-0.0238164 -0.186576 0)
(-0.0238818 -0.218705 0)
(-0.0221638 -0.25484 0)
(-0.0186786 -0.275836 0)
(-0.00601436 -0.252457 0)
(-0.000670844 0.113786 0)
(-0.00398856 0.152957 0)
(-0.00802041 0.170334 0)
(-0.0118038 0.181567 0)
(-0.0136637 0.184467 0)
(-0.0156323 0.180424 0)
(-0.0165311 0.170211 0)
(-0.0171503 0.156895 0)
(-0.017639 0.14245 0)
(-0.0179318 0.1279 0)
(-0.0181281 0.113868 0)
(-0.0182719 0.100668 0)
(-0.0183739 0.0883696 0)
(-0.0184485 0.0769071 0)
(-0.0184995 0.0661418 0)
(-0.0185315 0.0559154 0)
(-0.0185499 0.0460806 0)
(-0.0185605 0.036513 0)
(-0.0185693 0.0271108 0)
(-0.0185821 0.0177897 0)
(-0.0186036 0.00847664 0)
(-0.0186372 -0.000895383 0)
(-0.0186841 -0.0103909 0)
(-0.0187436 -0.0200744 0)
(-0.0188117 -0.0300113 0)
(-0.0188799 -0.0402665 0)
(-0.0189331 -0.0509004 0)
(-0.0189495 -0.0619616 0)
(-0.0189014 -0.073481 0)
(-0.0187614 -0.0854733 0)
(-0.018517 -0.0979636 0)
(-0.0181922 -0.111064 0)
(-0.0178786 -0.125139 0)
(-0.0177556 -0.141093 0)
(-0.0180347 -0.160645 0)
(-0.018708 -0.186016 0)
(-0.0193852 -0.218731 0)
(-0.0186924 -0.257138 0)
(-0.0166027 -0.28271 0)
(-0.00521932 -0.265252 0)
(0.00106184 0.114484 0)
(-0.000525863 0.156036 0)
(-0.00278977 0.173205 0)
(-0.00487741 0.183548 0)
(-0.00574633 0.185987 0)
(-0.00684098 0.181488 0)
(-0.00727753 0.171011 0)
(-0.00769955 0.157487 0)
(-0.00810309 0.142871 0)
(-0.0084078 0.128201 0)
(-0.00866193 0.114089 0)
(-0.00887465 0.10083 0)
(-0.00904192 0.0884869 0)
(-0.00916847 0.0769896 0)
(-0.00925864 0.0661972 0)
(-0.00932216 0.0559535 0)
(-0.00937138 0.0461102 0)
(-0.00941842 0.0365428 0)
(-0.0094749 0.0271491 0)
(-0.00955123 0.0178435 0)
(-0.0096559 0.00855172 0)
(-0.00979547 -0.000795301 0)
(-0.00997363 -0.0102646 0)
(-0.0101919 -0.019923 0)
(-0.0104486 -0.0298397 0)
(-0.0107378 -0.0400848 0)
(-0.0110474 -0.0507255 0)
(-0.0113577 -0.0618183 0)
(-0.0116413 -0.0733986 0)
(-0.0118685 -0.0854771 0)
(-0.0120188 -0.0980583 0)
(-0.012101 -0.111208 0)
(-0.0121866 -0.12521 0)
(-0.012437 -0.140881 0)
(-0.013075 -0.159946 0)
(-0.0141812 -0.184965 0)
(-0.0154794 -0.218015 0)
(-0.015704 -0.258107 0)
(-0.014727 -0.288041 0)
(-0.00444951 -0.275963 0)
(0.00216101 0.113167 0)
(0.00278 0.157062 0)
(0.00230043 0.174375 0)
(0.00179301 0.184302 0)
(0.00192055 0.186585 0)
(0.00169707 0.181905 0)
(0.00169032 0.171425 0)
(0.00148362 0.157897 0)
(0.00118885 0.143239 0)
(0.000900747 0.12852 0)
(0.000618656 0.114357 0)
(0.000363748 0.101044 0)
(0.000155957 0.0886502 0)
(-3.0152e-06 0.0771089 0)
(-0.000116062 0.0662833 0)
(-0.000198139 0.0560189 0)
(-0.000269231 0.0461698 0)
(-0.000345843 0.0366117 0)
(-0.000444711 0.0272406 0)
(-0.000580609 0.017969 0)
(-0.000765593 0.00872019 0)
(-0.00100911 -0.00057722 0)
(-0.00131735 -0.00999319 0)
(-0.00169388 -0.0195976 0)
(-0.00213923 -0.0294629 0)
(-0.00264991 -0.0396644 0)
(-0.00321723 -0.0502754 0)
(-0.00382506 -0.0613594 0)
(-0.00444999 -0.0729587 0)
(-0.0050628 -0.0850852 0)
(-0.00563851 -0.0977286 0)
(-0.00617275 -0.110915 0)
(-0.00671691 -0.124853 0)
(-0.00741215 -0.140262 0)
(-0.00848196 -0.158836 0)
(-0.0100863 -0.183405 0)
(-0.0120475 -0.216644 0)
(-0.0131125 -0.258294 0)
(-0.0133705 -0.292539 0)
(-0.00385525 -0.286074 0)
(0.00334953 0.109824 0)
(0.00605106 0.156117 0)
(0.00725382 0.174013 0)
(0.00821557 0.183835 0)
(0.00937809 0.18613 0)
(0.00998318 0.181761 0)
(0.0104277 0.171505 0)
(0.010479 0.158117 0)
(0.0103223 0.143532 0)
(0.0100795 0.12883 0)
(0.00979797 0.114645 0)
(0.00952684 0.101288 0)
(0.0092989 0.0888401 0)
(0.00912379 0.0772479 0)
(0.00899765 0.066385 0)
(0.00890364 0.0561001 0)
(0.00881806 0.0462512 0)
(0.00871815 0.0367134 0)
(0.00858214 0.0273808 0)
(0.00839103 0.0181628 0)
(0.00812923 0.00897955 0)
(0.00778424 -0.000243489 0)
(0.0073475 -0.00957828 0)
(0.00681355 -0.0190984 0)
(0.00617952 -0.0288793 0)
(0.00544642 -0.039001 0)
(0.00461989 -0.0495434 0)
(0.00371114 -0.0605773 0)
(0.00273853 -0.0721515 0)
(0.00172756 -0.0842798 0)
(0.000701341 -0.0969442 0)
(-0.0003237 -0.110138 0)
(-0.00137875 -0.124006 0)
(-0.00258279 -0.139164 0)
(-0.00415119 -0.157242 0)
(-0.00630256 -0.18127 0)
(-0.0089602 -0.214525 0)
(-0.0107402 -0.25739 0)
(-0.0121721 -0.295867 0)
(-0.00326704 -0.294743 0)
(0.00463465 0.103992 0)
(0.00931206 0.153193 0)
(0.0120974 0.172127 0)
(0.0144151 0.182184 0)
(0.0166263 0.184738 0)
(0.0180405 0.180957 0)
(0.0189927 0.171226 0)
(0.019342 0.158121 0)
(0.0193596 0.143719 0)
(0.0192002 0.1291 0)
(0.0189523 0.11493 0)
(0.0186895 0.101541 0)
(0.0184599 0.0890407 0)
(0.0182822 0.0773953 0)
(0.0181534 0.0664923 0)
(0.0180554 0.0561897 0)
(0.0179615 0.0463482 0)
(0.017844 0.0368427 0)
(0.0176761 0.0275647 0)
(0.0174347 0.0184205 0)
(0.0171005 0.0093263 0)
(0.0166584 0.000204238 0)
(0.0160966 -0.00902142 0)
(0.015407 -0.0184275 0)
(0.0145851 -0.0280923 0)
(0.0136295 -0.0380982 0)
(0.0125415 -0.0485292 0)
(0.0113267 -0.0594636 0)
(0.00999869 -0.0709599 0)
(0.00857588 -0.0830377 0)
(0.00708021 -0.0956744 0)
(0.00553144 -0.108838 0)
(0.00391503 -0.122616 0)
(0.00214247 -0.137523 0)
(1.11196e-05 -0.155104 0)
(-0.00274404 -0.178535 0)
(-0.00617387 -0.211731 0)
(-0.00856147 -0.255679 0)
(-0.011271 -0.298562 0)
(-0.00276138 -0.302984 0)
(0.00587564 0.0960825 0)
(0.0125039 0.148378 0)
(0.0168253 0.168799 0)
(0.0204194 0.179401 0)
(0.0237228 0.182377 0)
(0.0258097 0.179445 0)
(0.0273866 0.170578 0)
(0.028107 0.157873 0)
(0.0283474 0.143756 0)
(0.0283196 0.129295 0)
(0.0281452 0.115179 0)
(0.0279218 0.101779 0)
(0.0277148 0.0892362 0)
(0.0275511 0.0775402 0)
(0.0274313 0.0665984 0)
(0.0273377 0.0562814 0)
(0.0272419 0.0464548 0)
(0.0271121 0.0369935 0)
(0.0269178 0.0277865 0)
(0.0266317 0.0187364 0)
(0.0262305 0.00975535 0)
(0.0256958 0.000761541 0)
(0.0250133 -0.00832564 0)
(0.0241721 -0.0175855 0)
(0.0231647 -0.0270994 0)
(0.021986 -0.0369533 0)
(0.0206334 -0.0472343 0)
(0.0191091 -0.058023 0)
(0.0174177 -0.0693823 0)
(0.0155686 -0.0813423 0)
(0.0135812 -0.0938862 0)
(0.0114757 -0.106972 0)
(0.00925303 -0.120632 0)
(0.0068539 -0.135278 0)
(0.00410073 -0.15235 0)
(0.000685754 -0.175121 0)
(-0.0035929 -0.208166 0)
(-0.00651098 -0.253168 0)
(-0.0106985 -0.299971 0)
(-0.00197088 -0.310281 0)
(0.00700767 0.0861039 0)
(0.015565 0.141675 0)
(0.0213944 0.164057 0)
(0.0261935 0.175509 0)
(0.0305083 0.179273 0)
(0.0333683 0.177083 0)
(0.0355749 0.169402 0)
(0.0367812 0.157308 0)
(0.0373157 0.143587 0)
(0.0374783 0.12936 0)
(0.0374302 0.115351 0)
(0.0372903 0.101973 0)
(0.0371372 0.0894039 0)
(0.0370096 0.0776665 0)
(0.0369144 0.0666924 0)
(0.0368364 0.0563677 0)
(0.0367469 0.0465649 0)
(0.0366121 0.0371604 0)
(0.0363979 0.0280411 0)
(0.0360733 0.0191055 0)
(0.0356112 0.0102616 0)
(0.0349897 0.00142276 0)
(0.0341916 -0.0074958 0)
(0.0332026 -0.0165758 0)
(0.0320113 -0.0259015 0)
(0.0306097 -0.0355613 0)
(0.028991 -0.0456454 0)
(0.0271498 -0.0562386 0)
(0.0250828 -0.0674082 0)
(0.0227937 -0.0791879 0)
(0.0202926 -0.0915656 0)
(0.0175951 -0.104501 0)
(0.0147155 -0.118 0)
(0.0116354 -0.132373 0)
(0.00819998 -0.148928 0)
(0.00406496 -0.170995 0)
(-0.00115251 -0.203833 0)
(-0.00458375 -0.24994 0)
(-0.0102658 -0.300549 0)
(-0.00128089 -0.317306 0)
(0.00795995 0.0741447 0)
(0.0183882 0.133169 0)
(0.0257001 0.157965 0)
(0.0316588 0.170569 0)
(0.0368204 0.175354 0)
(0.0407031 0.173965 0)
(0.0435055 0.167552 0)
(0.0453217 0.156329 0)
(0.0462537 0.143141 0)
(0.0466914 0.129233 0)
(0.0468414 0.115393 0)
(0.0468437 0.102079 0)
(0.046791 0.0895118 0)
(0.0467342 0.0777521 0)
(0.0466887 0.0667591 0)
(0.0466442 0.0564377 0)
(0.0465744 0.0466702 0)
(0.0464448 0.0373362 0)
(0.0462194 0.0283214 0)
(0.0458643 0.019521 0)
(0.0453484 0.0108386 0)
(0.0446469 0.00218278 0)
(0.0437385 -0.00653612 0)
(0.0426052 -0.0154013 0)
(0.0412316 -0.0244999 0)
(0.0396054 -0.0339233 0)
(0.0377148 -0.0437614 0)
(0.0355479 -0.0540997 0)
(0.0330935 -0.0650104 0)
(0.0303427 -0.0765358 0)
(0.0272944 -0.0886732 0)
(0.0239655 -0.101388 0)
(0.0203799 -0.114667 0)
(0.0165614 -0.128742 0)
(0.0123787 -0.144779 0)
(0.00745518 -0.166111 0)
(0.00123319 -0.198695 0)
(-0.0025944 -0.245895 0)
(-0.00967278 -0.300346 0)
(-0.00038728 -0.323665 0)
(0.00856356 0.0603554 0)
(0.0208052 0.122834 0)
(0.0295306 0.150478 0)
(0.0366484 0.164568 0)
(0.0427009 0.170488 0)
(0.0475311 0.17017 0)
(0.0510909 0.164916 0)
(0.0536226 0.154807 0)
(0.0550947 0.142309 0)
(0.0559297 0.128826 0)
(0.0563801 0.115229 0)
(0.0566096 0.102035 0)
(0.0567267 0.0895123 0)
(0.0567945 0.0777614 0)
(0.0568388 0.0667727 0)
(0.0568573 0.0564726 0)
(0.0568285 0.0467566 0)
(0.0567201 0.0375097 0)
(0.056496 0.0286183 0)
(0.0561207 0.0199746 0)
(0.0555596 0.0114793 0)
(0.0547858 0.00303543 0)
(0.0537732 -0.00545101 0)
(0.0524991 -0.0140639 0)
(0.0509441 -0.0228935 0)
(0.0490907 -0.0320335 0)
(0.0469205 -0.0415731 0)
(0.0444143 -0.0515971 0)
(0.0415509 -0.062178 0)
(0.0383104 -0.0733646 0)
(0.0346824 -0.0851687 0)
(0.0306795 -0.0975764 0)
(0.0263296 -0.110571 0)
(0.0216989 -0.124311 0)
(0.0166881 -0.139828 0)
(0.0108804 -0.160418 0)
(0.00360236 -0.192727 0)
(-0.000563159 -0.24109 0)
(-0.00961115 -0.299042 0)
(0.000458193 -0.329866 0)
(0.00854788 0.0451713 0)
(0.0224872 0.110844 0)
(0.0326289 0.141654 0)
(0.0409348 0.157525 0)
(0.0479406 0.164655 0)
(0.0536834 0.165528 0)
(0.058178 0.16143 0)
(0.0615336 0.152581 0)
(0.0637198 0.140942 0)
(0.0651145 0.128011 0)
(0.0660069 0.114754 0)
(0.0665837 0.101754 0)
(0.0669695 0.0893354 0)
(0.0672413 0.0776401 0)
(0.0674374 0.0666922 0)
(0.0675657 0.0564425 0)
(0.0676125 0.0468023 0)
(0.067551 0.0376649 0)
(0.0673471 0.0289192 0)
(0.0669661 0.0204565 0)
(0.0663709 0.0121756 0)
(0.0655334 0.00397412 0)
(0.0644227 -0.00424464 0)
(0.0630105 -0.0125646 0)
(0.0612734 -0.0210798 0)
(0.0591875 -0.0298847 0)
(0.0567264 -0.039066 0)
(0.0538625 -0.048707 0)
(0.0505643 -0.05888 0)
(0.046801 -0.0696403 0)
(0.0425506 -0.0810152 0)
(0.0378224 -0.0930158 0)
(0.0326397 -0.105644 0)
(0.0271243 -0.119006 0)
(0.0211869 -0.13398 0)
(0.01441 -0.15381 0)
(0.00604642 -0.185788 0)
(0.00163382 -0.235437 0)
(-0.00950414 -0.297095 0)
(0.00157729 -0.335613 0)
(0.00713784 0.0293239 0)
(0.0229751 0.0970673 0)
(0.0346061 0.131256 0)
(0.044216 0.149361 0)
(0.0522831 0.15789 0)
(0.0589864 0.159917 0)
(0.0644919 0.157012 0)
(0.0688311 0.149475 0)
(0.0719367 0.138849 0)
(0.0741005 0.126615 0)
(0.0756223 0.113816 0)
(0.0767091 0.101111 0)
(0.0775012 0.088878 0)
(0.0780905 0.077306 0)
(0.0785292 0.0664539 0)
(0.0788381 0.0562994 0)
(0.0790146 0.0467719 0)
(0.0790399 0.0377758 0)
(0.078886 0.0292052 0)
(0.0785202 0.0209528 0)
(0.0779071 0.0129178 0)
(0.077015 0.00499193 0)
(0.0758125 -0.00292028 0)
(0.0742637 -0.0109025 0)
(0.0723404 -0.0190534 0)
(0.0700125 -0.0274653 0)
(0.0672436 -0.0362215 0)
(0.0639967 -0.0454031 0)
(0.0602296 -0.0550809 0)
(0.0559008 -0.0653171 0)
(0.0509778 -0.0761564 0)
(0.0454688 -0.0876425 0)
(0.0393878 -0.0998049 0)
(0.0329031 -0.112736 0)
(0.0259299 -0.12715 0)
(0.0181029 -0.146206 0)
(0.00855091 -0.177797 0)
(0.00396645 -0.228725 0)
(-0.00980315 -0.294386 0)
(0.00281131 -0.341107 0)
(0.003745 0.0154603 0)
(0.0215339 0.082017 0)
(0.0350899 0.119289 0)
(0.0461684 0.139916 0)
(0.0554199 0.150101 0)
(0.0631579 0.153272 0)
(0.0697493 0.151503 0)
(0.0752364 0.145283 0)
(0.0794869 0.135804 0)
(0.0826721 0.124424 0)
(0.085057 0.112227 0)
(0.0868618 0.0999402 0)
(0.088241 0.0880016 0)
(0.0893005 0.0766454 0)
(0.0901078 0.0659673 0)
(0.0906986 0.0559729 0)
(0.091084 0.046612 0)
(0.0912565 0.037803 0)
(0.0911976 0.0294478 0)
(0.0908783 0.0214442 0)
(0.0902704 0.0136924 0)
(0.0893371 0.00608126 0)
(0.0880478 -0.00147925 0)
(0.0863625 -0.00907425 0)
(0.0842461 -0.0168047 0)
(0.0816612 -0.024758 0)
(0.0785619 -0.0330138 0)
(0.0749002 -0.0416506 0)
(0.0706237 -0.0507372 0)