/*--------------------------------*- C++ -*----------------------------------*\
  =========                 |
  \\      /  F ield         | OpenFOAM: The Open Source CFD Toolbox
   \\    /   O peration     | Website:  https://openfoam.org
    \\  /    A nd           | Version:  12
     \\/     M anipulation  |
\*---------------------------------------------------------------------------*/
FoamFile
{
    format      ascii;
    class       volScalarField;
    location    "4";
    object      epsilon;
}
// * * * * * * * * * * * * * * * * * * * * * * * * * * * * * * * * * * * * * //

dimensions      [0 2 -3 0 0 0 0];

internalField   nonuniform List<scalar> 
1600
(
1.71585e-05
6.87285e-05
0.000142442
0.000168668
0.000172015
0.000187012
0.000231078
0.000313236
0.000397005
0.000474937
0.000637307
0.00092746
0.00115941
0.00134563
0.00159429
0.00190461
0.00223766
0.00257279
0.00293502
0.00330946
0.00372246
0.00416682
0.00466999
0.0052401
0.0059207
0.00660405
0.00724404
0.00781932
0.00828182
0.00852212
0.00860748
0.0082837
0.00747641
0.00609807
0.00424417
0.00237548
0.00108964
0.000431429
0.000132169
2.66289e-05
8.12363e-05
0.000100523
0.000135134
0.000147415
0.000161669
0.0002072
0.000323394
0.000558259
0.000890364
0.00130307
0.00210007
0.00320549
0.00364063
0.00371155
0.00367892
0.00361879
0.00359878
0.00359033
0.00363083
0.00370592
0.00383575
0.00400331
0.00420409
0.00443588
0.00471569
0.00505424
0.00542989
0.00585068
0.00626257
0.00656902
0.0067004
0.00667302
0.00614118
0.00526015
0.00372996
0.00205714
0.000843483
0.000354328
0.000123712
5.57238e-05
0.000229792
0.000244106
0.000273649
0.000297513
0.000373738
0.00059083
0.00107808
0.00194913
0.00317642
0.00400367
0.00422551
0.00395647
0.00360298
0.0034162
0.00320581
0.00301773
0.00288398
0.00279125
0.00274824
0.00273399
0.00274904
0.00280331
0.00289961
0.00303755
0.00320773
0.00341187
0.00365345
0.00393639
0.00426423
0.00464261
0.00503345
0.00532575
0.00543275
0.00513954
0.00439392
0.00277365
0.00086706
0.000243592
8.73374e-05
4.89354e-05
0.00051939
0.000478351
0.000521773
0.000626837
0.000921462
0.00159285
0.00272986
0.00380733
0.00420138
0.00413738
0.0038151
0.00330563
0.00287161
0.00253624
0.00232203
0.00220111
0.00212382
0.00208975
0.00207973
0.00209427
0.00214024
0.00220405
0.00228864
0.00239115
0.00251462
0.00265814
0.00282776
0.00302579
0.00325457
0.00351306
0.00379882
0.00412287
0.00451406
0.00478937
0.00483827
0.00433112
0.00193632
0.000348586
7.73556e-05
3.72815e-05
0.000994083
0.000821935
0.000945555
0.00123687
0.00187328
0.00290988
0.00379908
0.00409041
0.00399555
0.00352017
0.00278206
0.00238481
0.00209117
0.00191312
0.00181866
0.00177439
0.00175922
0.0017627
0.00179983
0.00184642
0.00190815
0.00197604
0.00205428
0.00214254
0.00224566
0.00236677
0.00251182
0.00268444
0.00288676
0.00311642
0.0033665
0.0036356
0.0039297
0.0042952
0.00472776
0.00487475
0.00418139
0.00109752
0.000146578
4.45541e-05
0.00170562
0.00131137
0.00155039
0.00204143
0.00285864
0.00360711
0.00386247
0.0038134
0.00321269
0.00246845
0.00205905
0.00181185
0.001663
0.00159532
0.00157076
0.00156735
0.00159718
0.00163739
0.00169087
0.00174559
0.00180658
0.00187044
0.00194234
0.00202397
0.00212048
0.00223632
0.00237752
0.00254834
0.00275182
0.00298786
0.00325285
0.00352234
0.00378398
0.00406092
0.00440237
0.00475264
0.00483769
0.00291225
0.000436581
8.33625e-05
0.0026327
0.00192878
0.00225079
0.00280792
0.00340598
0.00363821
0.00362399
0.00305446
0.00229111
0.00185764
0.0016245
0.00150053
0.00144625
0.0014308
0.00143488
0.00146616
0.00150434
0.00154494
0.00158733
0.00162936
0.00167466
0.00172465
0.0017847
0.00185895
0.00195348
0.00207438
0.00222828
0.00242047
0.00265391
0.00292573
0.00322466
0.00353379
0.00381348
0.00404723
0.00431137
0.0046453
0.00481952
0.00444979
0.00114803
0.000189045
0.00364426
0.00260105
0.00290898
0.00332665
0.00351374
0.00347918
0.00301279
0.00224015
0.00174552
0.00150298
0.00138413
0.00133332
0.00131899
0.00132121
0.00134453
0.00137092
0.0013946
0.00141534
0.00143393
0.00145242
0.00147488
0.0015055
0.00154968
0.00161264
0.00170095
0.00182193
0.00198407
0.00219607
0.0024653
0.0027939
0.00317263
0.00357358
0.00397747
0.00428383
0.00446157
0.00465368
0.00482544
0.00485779
0.00245691
0.00044071
0.00455376
0.00322112
0.00341793
0.00354597
0.00344247
0.0030594
0.00231829
0.00172213
0.00143448
0.00130046
0.00124285
0.00122394
0.00122126
0.00123174
0.00124363
0.00124853
0.0012493
0.0012447
0.00123867
0.001236
0.00123782
0.0012518
0.00128169
0.00133208
0.00140947
0.00152148
0.00167804
0.00189126
0.00217469
0.00254015
0.00299058
0.00350749
0.00403628
0.00454577
0.00480891
0.0049634
0.00506252
0.00509463
0.00417322
0.00120576
0.0052645
0.00370587
0.00371364
0.0035944
0.00321661
0.00252084
0.00180736
0.00142242
0.00124817
0.00117209
0.00114262
0.00113367
0.00113176
0.00113124
0.00112278
0.00110543
0.00108309
0.0010577
0.00103385
0.00101722
0.00101026
0.00101022
0.00103007
0.001069
0.00113335
0.00123025
0.00137003
0.00156689
0.00183934
0.002209
0.00269524
0.0033024
0.00399669
0.00467598
0.00514764
0.00533555
0.0053945
0.00536289
0.00495365
0.00236896
0.00573088
0.00401713
0.00386509
0.00352025
0.00284866
0.00205363
0.00149244
0.00123722
0.00112509
0.00107724
0.00105724
0.001048
0.00103728
0.00101934
0.000991234
0.000956076
0.000918406
0.000881549
0.000849607
0.00082559
0.000813546
0.000809846
0.000821201
0.000851118
0.000902753
0.000982676
0.00110061
0.00127109
0.00151506
0.00186078
0.00234167
0.00298672
0.00379763
0.00471182
0.00549458
0.00581002
0.00588965
0.00575084
0.00532735
0.00352104
0.00601015
0.00417789
0.00385544
0.00334208
0.0024799
0.00170109
0.00129178
0.00111098
0.00103178
0.000996251
0.000978878
0.000962466
0.000938386
0.00090465
0.000862533
0.000816873
0.000772084
0.000731396
0.000697556
0.000672162
0.00065862
0.000653803
0.000659779
0.000682439
0.00072292
0.000786899
0.000882974
0.00102473
0.00123321
0.0015398
0.0019876
0.00262648
0.00349267
0.00456214
0.0056856
0.00628991
0.00643524
0.00626227
0.00589111
0.00454135
0.00600309
0.0041824
0.00378125
0.00309218
0.00214716
0.00146584
0.00115254
0.00101529
0.0009539
0.000924415
0.000903721
0.000877366
0.000841355
0.000796625
0.000746886
0.000697171
0.000651176
0.000611271
0.000578928
0.000554836
0.00054127
0.000536089
0.000538553
0.000555222
0.00058643
0.000636812
0.00071366
0.000828914
0.00100209
0.00126459
0.00166465
0.002269
0.00315049
0.00434256
0.00574417
0.0067775
0.00705977
0.00683397
0.00621558
0.00543002
0.00592046
0.00413517
0.00362057
0.002832
0.00187685
0.00130149
0.00104856
0.000937702
0.00088655
0.000858683
0.000831921
0.000796632
0.000752144
0.000701405
0.00064909
0.000599593
0.00055561
0.000518509
0.000488826
0.000466662
0.000453304
0.000447854
0.000447832
0.00045957
0.000483346
0.000522806
0.000583984
0.000676966
0.000818838
0.00103866
0.00138489
0.00193309
0.00278462
0.00403399
0.00567682
0.0071991
0.00773066
0.00754771
0.00680545
0.00631282
0.00572535
0.00401847
0.00341479
0.0025838
0.00166854
0.00117973
0.000966691
0.000872571
0.000827654
0.00079837
0.000765579
0.000723723
0.000674297
0.000621409
0.000569703
0.000522617
0.000481864
0.000447995
0.000420967
0.000400588
0.000387221
0.000380956
0.000379674
0.000387315
0.000405304
0.000436336
0.000485348
0.000560701
0.000676907
0.00085971
0.00115489
0.00164085
0.00243775
0.00368679
0.00545349
0.00747902
0.00841457
0.00828817
0.00735213
0.00712935
0.00540202
0.00385074
0.00319576
0.00236202
0.00151129
0.00108619
0.000900281
0.000817118
0.000775861
0.00074405
0.000706519
0.000660534
0.000608987
0.000556413
0.000506921
0.000463004
0.000425577
0.000394629
0.0003698
0.000350736
0.000337245
0.000330144
0.000327983
0.000332538
0.000346119
0.0003708
0.000410612
0.000472439
0.000568379
0.000720504
0.000970064
0.0013935
0.00212261
0.00334437
0.00521139
0.00759516
0.00911145
0.00917698
0.00802654
0.00796681
0.00501712
0.00365953
0.00297939
0.0021712
0.00139457
0.00101304
0.000845648
0.000770211
0.000730593
0.000696351
0.000655613
0.000607519
0.000555758
0.000504803
0.000458084
0.000417307
0.00038281
0.000354247
0.000331095
0.000312932
0.000299534
0.000291613
0.000288698
0.000291056
0.000301348
0.000321306
0.000354277
0.000405973
0.000486452
0.000614349
0.000825719
0.00119154
0.00184619
0.00301007
0.00493127
0.00761883
0.00978151
0.0100979
0.0087151
0.00876713
0.00457566
0.00347745
0.00277958
0.00201276
0.00130608
0.00095561
0.0008008
0.000730638
0.000691524
0.000655448
0.000612883
0.000564161
0.00051331
0.000464507
0.000420543
0.000382538
0.000350461
0.000323783
0.000301921
0.000284456
0.000271203
0.000262632
0.000259044
0.000259895
0.000267763
0.000284219
0.000312126
0.000356309
0.000425199
0.000534451
0.000714981
0.00103053
0.00161157
0.00269879
0.004622
0.00753882
0.0103833
0.011109
0.00954288
0.00959457
0.00411983
0.00329913
0.00260002
0.00188404
0.00124046
0.000911238
0.00076432
0.000697371
0.000658243
0.000621051
0.000577776
0.000529427
0.000480069
0.00043351
0.00039203
0.000356351
0.000326227
0.000301044
0.000280215
0.000263347
0.000250294
0.000241286
0.000237052
0.000236906
0.000242988
0.000256829
0.000280976
0.000319611
0.000379937
0.000475184
0.000631655
0.000905312
0.00141816
0.00241924
0.00430811
0.00739067
0.010903
0.0121409
0.0104318
0.010396
0.00363522
0.00313946
0.00244684
0.00178117
0.00119264
0.000877506
0.000735091
0.000669667
0.00063025
0.000592573
0.000549439
0.00050211
0.000454506
0.000410081
0.000370747
0.000336985
0.000308438
0.000284471
0.000264509
0.000248186
0.00023538
0.00022621
0.000221295
0.000220511
0.000225256
0.000237113
0.000258442
0.000292975
0.000347021
0.000431933
0.000570089
0.000809961
0.0012626
0.00217499
0.00400086
0.00720464
0.0113385
0.0132279
0.0114518
0.011221
0.00324864
0.00300013
0.00231843
0.00170154
0.00116086
0.000854857
0.000712351
0.000646761
0.000606905
0.000569266
0.000526909
0.000481023
0.000435273
0.000392812
0.000355313
0.000323135
0.000295886
0.000272937
0.000253735
0.00023793
0.000225403
0.000216264
0.000210846
0.00020953
0.000213244
0.000223547
0.000242757
0.000274247
0.000323722
0.000401151
0.000525706
0.000739078
0.00114052
0.00196746
0.00371113
0.00700549
0.0116703
0.0143274
0.0125751
0.0120241
0.00292061
0.00287322
0.00222268
0.00164114
0.0011399
0.000839789
0.000696238
0.000628469
0.000587687
0.000550367
0.000509233
0.000465084
0.000421234
0.000380587
0.000344682
0.00031384
0.000287685
0.000265621
0.000247115
0.000231817
0.000219593
0.00021054
0.000204978
0.000203447
0.00020638
0.00021533
0.000232782
0.000261869
0.000308034
0.000380178
0.000494925
0.000688022
0.00104703
0.00179433
0.00343936
0.00678036
0.0119263
0.0154493
0.0138455
0.0128419
0.00262999
0.00276229
0.00215693
0.00160218
0.00113445
0.000838464
0.000685513
0.000614318
0.000572111
0.000535198
0.000495574
0.000453366
0.000411456
0.000372528
0.00033805
0.000308374
0.000283193
0.000261948
0.000244129
0.000229336
0.000217413
0.000208458
0.000202856
0.000201281
0.000203796
0.00021179
0.000228006
0.000255451
0.000299221
0.000367634
0.00047529
0.000653154
0.00097812
0.00165457
0.00319137
0.00653006
0.0121149
0.0165794
0.015239
0.0136373
0.00236527
0.00267117
0.00211552
0.00157811
0.0011383
0.000843057
0.000684905
0.000604789
0.000560008
0.000523197
0.000485137
0.000445015
0.000405131
0.000367884
0.000334777
0.000306386
0.000282233
0.000261775
0.00024445
0.000229977
0.000218277
0.000209436
0.000203788
0.000202036
0.000204078
0.000211263
0.000226614
0.000253157
0.000295567
0.000361901
0.000465672
0.000632807
0.000929462
0.00154475
0.00297067
0.00626152
0.01222
0.0177283
0.0167572
0.0144344
0.00211807
0.00259439
0.00209501
0.00157858
0.00115039
0.000855202
0.000688678
0.000601765
0.000551481
0.000514195
0.00047759
0.000439553
0.00040165
0.000366342
0.00033487
0.000307192
0.000283561
0.00026357
0.000246774
0.000232816
0.000221552
0.000213021
0.000207526
0.000205799
0.00020761
0.000214124
0.000228414
0.000253777
0.000295082
0.000360381
0.000462407
0.000623852
0.000898856
0.00146058
0.00277874
0.00598245
0.0122609
0.0188767
0.0184025
0.015202
0.00188604
0.00253294
0.00209679
0.0015875
0.00117536
0.000879129
0.000699315
0.000604028
0.000548309
0.00050794
0.000472018
0.000435967
0.000400662
0.000367037
0.000336489
0.000309837
0.000287113
0.000267913
0.000251817
0.000238468
0.00022765
0.0002194
0.000214022
0.000212431
0.000214177
0.00022037
0.000234106
0.00025892
0.000299542
0.000363953
0.000464346
0.000622005
0.000884802
0.00139905
0.00261371
0.00570039
0.0122553
0.0200109
0.0201747
0.0159539
0.00166353
0.00247304
0.00210606
0.00160953
0.0012118
0.000913654
0.000721123
0.000611987
0.000550125
0.000507338
0.000470567
0.000435799
0.000401617
0.000369331
0.000340287
0.000314972
0.000293215
0.000274791
0.000259341
0.000246546
0.000236211
0.000228336
0.000223191
0.000221899
0.000223711
0.000229853
0.000243427
0.000268105
0.000308679
0.000373303
0.000474037
0.000629814
0.000881638
0.00135911
0.00247715
0.0054217
0.012131
0.021091
0.0220646
0.0166661
0.00145387
0.00241605
0.00212791
0.00164452
0.00125762
0.000958864
0.000754452
0.000629525
0.000557143
0.000509966
0.000472059
0.000437382
0.000404354
0.000373859
0.000346264
0.000322083
0.000301316
0.000283745
0.000269044
0.000256915
0.000247175
0.000239811
0.000235049
0.000234269
0.000236273
0.000242628
0.000256455
0.00028141
0.000322418
0.000387843
0.000489909
0.000646609
0.000892126
0.00134118
0.00236762
0.00515444
0.0119671
0.0220798
0.0240529
0.0173459
0.0012518
0.00233324
0.00214235
0.00169379
0.00131285
0.00101465
0.000800058
0.000660173
0.000573288
0.000518338
0.000477372
0.000441993
0.000409895
0.000380554
0.000354211
0.000331159
0.000311411
0.000294756
0.000280898
0.000269555
0.000260553
0.000253864
0.000249704
0.000249649
0.000252
0.000258877
0.000273454
0.00029915
0.000341121
0.000407951
0.000512171
0.000671611
0.000915776
0.00133743
0.00228229
0.0048961
0.0117147
0.0229901
0.02609
0.0179775
0.00107344
0.0022335
0.00213438
0.00175354
0.00137604
0.00108083
0.000859212
0.000705353
0.000604121
0.000536957
0.000489726
0.000451846
0.000419301
0.000390372
0.000364827
0.000342676
0.000323832
0.000308069
0.000295091
0.00028462
0.000276493
0.000270618
0.000267493
0.000268003
0.000271123
0.000278958
0.000294842
0.000321793
0.000365349
0.000434288
0.000541488
0.000705249
0.000952313
0.00135556
0.00223664
0.00465696
0.01136
0.0237534
0.0281115
0.0185688
0.000919698
0.00207859
0.0021051
0.00182244
0.0014462
0.00115546
0.000931709
0.000767521
0.000652339
0.000572388
0.000515119
0.000471563
0.000435962
0.000405756
0.000379913
0.000357975
0.000339614
0.000324496
0.000312275
0.000302645
0.000295462
0.000290451
0.000288744
0.000289912
0.000294088
0.000303473
0.000321098
0.000350039
0.000396031
0.000468052
0.000579314
0.000749138
0.0010035
0.00139725
0.00222175
0.0044476
0.0109474
0.0243605
0.0300161
0.0191152
0.000792645
0.00184463
0.0020707
0.00187154
0.00152141
0.00123982
0.00101904
0.00084901
0.000722101
0.000628803
0.000559604
0.000506919
0.000465218
0.000431243
0.000403214
0.000380117
0.000361262
0.000346106
0.000334168
0.000325085
0.000318672
0.000314481
0.000314389
0.000316339
0.000321892
0.000333513
0.000353557
0.000385522
0.000435205
0.000511888
0.000629035
0.000807599
0.00107451
0.00147191
0.00225382
0.00434385
0.010542
0.0247698
0.0316852
0.0196336
0.000688488
0.0015406
0.00199972
0.00186801
0.00158183
0.00132617
0.00112013
0.000953835
0.000820936
0.000716224
0.000634037
0.000569228
0.00051761
0.000476149
0.000442737
0.000415899
0.000394531
0.000377788
0.000364941
0.000355553
0.000349168
0.000345947
0.000346638
0.00034989
0.000357505
0.000372248
0.00039595
0.000432704
0.000488289
0.000572688
0.000699383
0.000892122
0.00117874
0.00160443
0.00236851
0.0043262
0.0103399
0.0250793
0.0329387
0.0201398
0.000620518
0.00122766
0.00185014
0.00182253
0.00164393
0.0014213
0.00123662
0.00108203
0.000951041
0.000840059
0.000747048
0.000669787
0.000606116
0.000554005
0.000511694
0.000477689
0.000450682
0.000429652
0.00041369
0.000402379
0.000394771
0.000392314
0.000393808
0.000398892
0.000409996
0.000429667
0.000459806
0.000505223
0.000571483
0.000670545
0.000814999
0.00103497
0.00135675
0.00184453
0.00264327
0.00457412
0.0103164
0.025396
0.0336176
0.0207007
0.000627005
0.000984562
0.00160558
0.00172198
0.00165822
0.00152155
0.00138401
0.00125663
0.00113731
0.00102693
0.000926059
0.000836025
0.000757414
0.000690192
0.000633882
0.000587561
0.000550481
0.000522285
0.000501535
0.000487345
0.000478619
0.000478488
0.000481952
0.000491437
0.000510575
0.000540602
0.00058428
0.000648418
0.000737653
0.00086974
0.00105314
0.00133462
0.00172945
0.00235727
0.00329858
0.00540214
0.0110816
0.0261966
0.0338953
0.0209733
0.000779088
0.000815055
0.00128762
0.00153147
0.00165807
0.00163365
0.00156744
0.00148012
0.00138357
0.0012814
0.00118035
0.00108424
0.000996268
0.000918535
0.000852052
0.000796963
0.000752911
0.000719091
0.000696312
0.000681865
0.000680764
0.000686628
0.000701883
0.000731639
0.000774622
0.000836942
0.000918455
0.00103272
0.0011835
0.00140396
0.00168894
0.00212992
0.00270536
0.00366518
0.00497569
0.00763318
0.0134835
0.0280191
0.0339377
0.0210676
0.00103939
0.000823101
0.0011947
0.00155651
0.00178829
0.00191893
0.00196334
0.00194876
0.00190003
0.00181722
0.00172407
0.00162869
0.00153759
0.00145703
0.00138977
0.00133754
0.00130221
0.00128496
0.00128809
0.0013034
0.00133922
0.00140047
0.00148192
0.0015937
0.00173372
0.00191838
0.00214299
0.00244072
0.00279443
0.00327667
0.00386459
0.0047421
0.00579949
0.00753426
0.00967931
0.0135683
0.0193893
0.0318163
0.0339824
0.0208009
0.00161598
0.00112015
0.00166812
0.00225983
0.00273502
0.0031028
0.00333644
0.00346269
0.00351496
0.00350853
0.00348197
0.00344523
0.00341496
0.00341185
0.00342699
0.00347016
0.0035578
0.00368811
0.00386021
0.00408235
0.0043514
0.0046875
0.00508148
0.00556124
0.00611458
0.00678374
0.00755299
0.00848304
0.00955568
0.0108654
0.0123532
0.014238
0.0165318
0.0198205
0.0235833
0.0291295
0.0340411
0.0393096
0.0357062
0.0197752
0.00299062
0.00276876
0.00525713
0.0075411
0.0090052
0.0100316
0.0107364
0.0112252
0.0115718
0.0118397
0.0120779
0.0123336
0.0126309
0.0130065
0.0134608
0.0140177
0.0146722
0.0154597
0.0163544
0.0174047
0.0185692
0.0199147
0.0213868
0.0230697
0.0248993
0.026964
0.0292188
0.0317051
0.0344851
0.0373994
0.0408818
0.0441148
0.0485115
0.0515404
0.0563748
0.0567416
0.054539
0.0467744
0.0365398
0.0176679
0.00202789
0.00334016
0.00460339
0.00603134
0.00733039
0.00847078
0.0094336
0.0102343
0.0108718
0.0113717
0.0117419
0.0120087
0.012203
0.0123371
0.0124367
0.0125069
0.0125731
0.0126281
0.0127053
0.0127741
0.0128897
0.0129905
0.0131662
0.0133094
0.0135642
0.0137557
0.0141081
0.0143505
0.0148162
0.0151077
0.0156831
0.0160183
0.0166398
0.0170602
0.0179392
0.0184856
0.0192987
0.0192566
0.0185435
0.0154657
)
;

boundaryField
{
    movingWall
    {
        type            epsilonWallFunction;
        value           nonuniform List<scalar> 
40
(
0.00202789
0.00334016
0.00460339
0.00603134
0.00733039
0.00847078
0.0094336
0.0102343
0.0108718
0.0113717
0.0117419
0.0120087
0.012203
0.0123371
0.0124367
0.0125069
0.0125731
0.0126281
0.0127053
0.0127741
0.0128897
0.0129905
0.0131662
0.0133094
0.0135642
0.0137557
0.0141081
0.0143505
0.0148162
0.0151077
0.0156831
0.0160183
0.0166398
0.0170602
0.0179392
0.0184856
0.0192987
0.0192566
0.0185435
0.0154657
)
;
    }
    fixedWalls
    {
        type            epsilonWallFunction;
        value           nonuniform List<scalar> 
120
(
1.71585e-05
8.12363e-05
0.000229792
0.00051939
0.000994083
0.00170562
0.0026327
0.00364426
0.00455376
0.0052645
0.00573088
0.00601015
0.00600309
0.00592046
0.00572535
0.00540202
0.00501712
0.00457566
0.00411983
0.00363522
0.00324864
0.00292061
0.00262999
0.00236527
0.00211807
0.00188604
0.00166353
0.00145387
0.0012518
0.00107344
0.000919698
0.000792645
0.000688488
0.000620518
0.000627005
0.000779088
0.00103939
0.00161598
0.00299062
0.00202789
2.66289e-05
5.57238e-05
4.89354e-05
3.72815e-05
4.45541e-05
8.33625e-05
0.000189045
0.00044071
0.00120576
0.00236896
0.00352104
0.00454135
0.00543002
0.00631282
0.00712935
0.00796681
0.00876713
0.00959457
0.010396
0.011221
0.0120241
0.0128419
0.0136373
0.0144344
0.015202
0.0159539
0.0166661
0.0173459
0.0179775
0.0185688
0.0191152
0.0196336
0.0201398
0.0207007
0.0209733
0.0210676
0.0208009
0.0197752
0.0176679
0.0154657
1.71585e-05
6.87285e-05
0.000142442
0.000168668
0.000172015
0.000187012
0.000231078
0.000313236
0.000397005
0.000474937
0.000637307
0.00092746
0.00115941
0.00134563
0.00159429
0.00190461
0.00223766
0.00257279
0.00293502
0.00330946
0.00372246
0.00416682
0.00466999
0.0052401
0.0059207
0.00660405
0.00724404
0.00781932
0.00828182
0.00852212
0.00860748
0.0082837
0.00747641
0.00609807
0.00424417
0.00237548
0.00108964
0.000431429
0.000132169
2.66289e-05
)
;
    }
    frontAndBack
    {
        type            empty;
    }
}


// ************************************************************************* //
