/*--------------------------------*- C++ -*----------------------------------*\
  =========                 |
  \\      /  F ield         | OpenFOAM: The Open Source CFD Toolbox
   \\    /   O peration     | Website:  https://openfoam.org
    \\  /    A nd           | Version:  12
     \\/     M anipulation  |
\*---------------------------------------------------------------------------*/
FoamFile
{
    format      ascii;
    class       volScalarField;
    location    "4";
    object      k;
}
// * * * * * * * * * * * * * * * * * * * * * * * * * * * * * * * * * * * * * //

dimensions      [0 2 -2 0 0 0 0];

internalField   nonuniform List<scalar> 
1600
(
1.34093e-06
5.36969e-06
1.11274e-05
1.317e-05
1.34245e-05
1.45924e-05
1.80362e-05
2.44759e-05
3.10447e-05
3.71503e-05
4.98666e-05
7.26025e-05
9.07468e-05
0.000105317
0.000124777
0.000149055
0.000175104
0.000201312
0.00022964
0.000258915
0.000291209
0.000325949
0.00036529
0.00040986
0.000463069
0.000516444
0.000566472
0.000611399
0.000647546
0.000666303
0.000672968
0.00064765
0.000584577
0.000476854
0.000331898
0.000185709
8.51816e-05
3.37234e-05
1.03293e-05
2.08088e-06
6.3499e-06
3.62012e-05
7.33041e-05
8.84893e-05
9.53253e-05
0.000108561
0.00013965
0.000189891
0.000238684
0.000283113
0.000374648
0.000515286
0.0005913
0.000625528
0.000656933
0.000692144
0.000735236
0.000773263
0.000819619
0.0008646
0.000916852
0.00096995
0.00102722
0.00108345
0.00113773
0.00119552
0.00125659
0.00131687
0.00136721
0.0013917
0.00139834
0.00134344
0.00122357
0.00104176
0.000759928
0.000447882
0.000197514
8.10934e-05
2.85785e-05
4.35045e-06
1.79694e-05
9.12175e-05
0.000156439
0.00018598
0.000217822
0.000283876
0.000405274
0.000571285
0.000746624
0.00084927
0.000876134
0.000837362
0.000804516
0.000792532
0.000801078
0.000822379
0.000841447
0.000866197
0.000893048
0.000922524
0.000955138
0.000988661
0.00102438
0.00106068
0.00109824
0.00113824
0.00117897
0.00121929
0.00125673
0.00128314
0.00129393
0.00129295
0.00122317
0.00108701
0.00085058
0.000515604
0.000190191
7.145e-05
2.69256e-05
3.81923e-06
4.06263e-05
0.000184388
0.000279162
0.000335484
0.000420684
0.00057342
0.000779584
0.000933415
0.000982071
0.000934168
0.000865718
0.000827129
0.000810113
0.000807288
0.000817903
0.000831635
0.000849223
0.00087032
0.000892461
0.000915114
0.000938339
0.000961776
0.000985786
0.00101083
0.00103735
0.00106381
0.00109067
0.00111663
0.00114025
0.00115833
0.00116705
0.00116918
0.00114798
0.00110211
0.000994963
0.0007633
0.000295674
7.68423e-05
2.23036e-05
2.90934e-06
7.7766e-05
0.000320469
0.000448393
0.000539436
0.000676498
0.00086574
0.000994119
0.00102701
0.000967786
0.000887518
0.000829767
0.000806418
0.000800044
0.000799729
0.000815273
0.000831383
0.000852321
0.000874326
0.000897265
0.000920772
0.000943792
0.000965898
0.00098737
0.00100875
0.00103082
0.00105348
0.00107699
0.00109987
0.00112039
0.00113491
0.00114179
0.00114326
0.00112723
0.00109724
0.00105142
0.000933999
0.000645883
0.000170803
3.10184e-05
3.47876e-06
0.000133429
0.000489333
0.000647741
0.000760711
0.000905702
0.00101524
0.0010448
0.000996022
0.00089336
0.000822079
0.000792546
0.000782872
0.000781828
0.000796156
0.000815848
0.000837287
0.000864584
0.000890231
0.000916144
0.000940131
0.000962366
0.00098324
0.00100367
0.00102415
0.00104594
0.00107064
0.00109921
0.00113242
0.00116717
0.0011931
0.00120363
0.00120538
0.00119071
0.00114724
0.0010798
0.00099447
0.000819994
0.000344126
6.58473e-05
6.51507e-06
0.000205966
0.000666582
0.000847943
0.000950297
0.00103049
0.00105615
0.00101394
0.00090583
0.0008168
0.000779147
0.000766192
0.000764076
0.000777072
0.00079854
0.000823871
0.000851
0.00087627
0.000899501
0.000921057
0.0009407
0.000959176
0.000976504
0.000994245
0.0010137
0.00103682
0.00106495
0.00109897
0.0011389
0.00118484
0.00123562
0.00128005
0.0012977
0.00130004
0.00127357
0.00119711
0.00106876
0.000898665
0.000605805
0.000140279
1.47836e-05
0.00028511
0.000841837
0.00101579
0.0010719
0.00108554
0.00103525
0.000933102
0.000820699
0.000770014
0.000751364
0.000747396
0.000756674
0.000778893
0.000803693
0.000828274
0.000851775
0.000873128
0.000891065
0.000905599
0.000916983
0.000926221
0.000935768
0.000948423
0.000965924
0.000989639
0.00102102
0.00106161
0.00111227
0.00117258
0.00123972
0.00130914
0.00136663
0.00138597
0.00138681
0.0013444
0.00122987
0.00102247
0.00071707
0.000237292
3.44943e-05
0.000356294
0.000985917
0.00113058
0.00114346
0.00107989
0.000977544
0.000842669
0.000769752
0.000740466
0.000732653
0.000735845
0.000755428
0.000778839
0.000802581
0.000823989
0.000841652
0.000853512
0.000859052
0.000861257
0.000862152
0.000864283
0.000869656
0.000879353
0.00089495
0.000918021
0.000950401
0.000994063
0.00105088
0.00112211
0.00120718
0.00130173
0.00139548
0.00146334
0.00147972
0.00146609
0.00138196
0.00119704
0.000893628
0.00042582
9.43765e-05
0.000411925
0.00109024
0.00121229
0.0011786
0.00105136
0.000900911
0.000786593
0.00073711
0.00072049
0.000718067
0.00073055
0.000753234
0.000775456
0.000794709
0.000806511
0.000810381
0.000810063
0.000805243
0.000800354
0.000796733
0.000795411
0.000797356
0.000804927
0.000818768
0.000840441
0.000871745
0.000914897
0.000972575
0.00104762
0.00114208
0.00125522
0.00138002
0.0014985
0.00156921
0.00157946
0.00152866
0.00135311
0.00103394
0.000580672
0.000185234
0.000448431
0.00115516
0.0012592
0.00117398
0.00100071
0.000835083
0.000748779
0.000714333
0.00070503
0.000707517
0.000726164
0.000747604
0.000763911
0.000770689
0.000771184
0.000766141
0.000757836
0.000747953
0.000739141
0.00073309
0.000730578
0.000730612
0.000737118
0.000749681
0.00076972
0.000798832
0.000839258
0.000894087
0.000967306
0.00106337
0.00118571
0.00133344
0.0014956
0.00162553
0.00167623
0.00166943
0.00153267
0.00120931
0.000697468
0.000275199
0.000470302
0.00118927
0.00127671
0.00115632
0.000943754
0.000790134
0.000721502
0.00069651
0.00069124
0.000699325
0.000719235
0.000733473
0.000738391
0.000737822
0.000730486
0.000719428
0.000706828
0.000694583
0.000684366
0.000677715
0.00067484
0.000674509
0.000680401
0.000691976
0.00071037
0.000736966
0.000773835
0.00082404
0.000891966
0.000983399
0.00110474
0.00126032
0.00144677
0.00164377
0.00176373
0.00178434
0.00168878
0.00137406
0.000849713
0.000354799
0.000469756
0.00118936
0.00126934
0.00112113
0.000892937
0.00075668
0.000699826
0.000681174
0.000678711
0.000690228
0.000704613
0.000709709
0.000709636
0.000702231
0.000689978
0.000675727
0.000661458
0.000648695
0.000638485
0.000631991
0.000629178
0.000628849
0.000634159
0.000644738
0.000661519
0.000685736
0.000719244
0.000764877
0.000826968
0.00091188
0.00102806
0.00118443
0.0013852
0.00161981
0.00182042
0.0018926
0.00184591
0.00154098
0.000962354
0.000424184
0.000463298
0.00117886
0.00124874
0.00108084
0.000849633
0.000729533
0.000681185
0.00066678
0.000665944
0.000677544
0.000684445
0.000685316
0.000679677
0.000667925
0.000653113
0.0006377
0.000623288
0.000610914
0.000601191
0.000594843
0.000591986
0.00059155
0.000596006
0.000605417
0.000620593
0.00064267
0.000673304
0.000715003
0.00077171
0.000849614
0.000957948
0.00110866
0.00131244
0.00156762
0.00184134
0.0019843
0.00198756
0.00170912
0.00110202
0.000493071
0.000448039
0.00115251
0.00121237
0.00103766
0.000814671
0.000706621
0.000664406
0.000652857
0.000652946
0.000661293
0.000663865
0.000660897
0.000651269
0.000637157
0.000621398
0.000605994
0.000592105
0.000580348
0.000571047
0.000564494
0.000561262
0.000560492
0.000563793
0.000571868
0.000585451
0.000605638
0.000633938
0.000672564
0.000724983
0.00079686
0.00089739
0.00104037
0.00124255
0.00151406
0.00183629
0.00206898
0.00211616
0.00187142
0.00122296
0.00055682
0.000422739
0.00111337
0.00116825
0.000995546
0.000786542
0.000686916
0.000648971
0.000639171
0.000639557
0.000644134
0.000644241
0.000637926
0.000625935
0.000610811
0.000595032
0.000580148
0.000566914
0.000555639
0.000546459
0.000539527
0.000535521
0.000534184
0.000536173
0.000542821
0.000554852
0.000573364
0.000599779
0.000636073
0.000685253
0.000752261
0.000845523
0.000978954
0.00117252
0.00144558
0.00179506
0.00212173
0.00223144
0.00203442
0.00135944
0.00062218
0.000392617
0.00106814
0.0011203
0.000956955
0.000763151
0.000669757
0.000634712
0.000626017
0.000626041
0.000628166
0.000625955
0.000617435
0.000604231
0.000588897
0.00057353
0.000559284
0.000546604
0.000535594
0.0005263
0.000518867
0.00051386
0.000511769
0.000512471
0.000517696
0.000528254
0.000545271
0.000570147
0.000604707
0.000651592
0.000715076
0.000802667
0.000927736
0.00111207
0.00138246
0.00174832
0.00214719
0.00233348
0.00218888
0.00148644
0.00068466
0.000358066
0.0010219
0.00107216
0.000922393
0.000743655
0.00065498
0.000621748
0.000613613
0.000613196
0.000613659
0.000609599
0.000599782
0.000586105
0.00057098
0.000556163
0.0005425
0.000530223
0.00051932
0.000509803
0.000501846
0.000495844
0.000492777
0.000492413
0.000496293
0.000505479
0.000521152
0.000544735
0.00057798
0.000623256
0.000684225
0.000767341
0.000884762
0.00105858
0.00132179
0.00170006
0.00215458
0.0024243
0.00234208
0.001627
0.000749245
0.00032239
0.000975029
0.00102514
0.000891687
0.000727859
0.000642336
0.000610085
0.000602166
0.000601351
0.000600649
0.00059536
0.000584897
0.000571193
0.000556465
0.000542197
0.000529022
0.000517041
0.000506179
0.000496434
0.000487993
0.000481259
0.000477102
0.000475859
0.000478546
0.000486482
0.000500936
0.000523403
0.000555634
0.000599829
0.000659151
0.000739043
0.000850135
0.00101347
0.00126542
0.0016467
0.00214542
0.00250463
0.00248664
0.00176387
0.000811807
0.000284457
0.000931197
0.000981706
0.000864713
0.000715635
0.000632084
0.000599788
0.000591713
0.000590607
0.000589097
0.000583125
0.000572473
0.000559007
0.00054475
0.000530993
0.000518238
0.000506512
0.000495713
0.000485829
0.00047705
0.000469791
0.000464761
0.000462694
0.00046439
0.000471206
0.000484546
0.000506025
0.000537453
0.000580949
0.000639299
0.000717025
0.000823129
0.000976816
0.0012154
0.00159087
0.00211587
0.00257648
0.0026278
0.00191155
0.000876207
0.000254195
0.000884074
0.00094135
0.000841652
0.000706093
0.000623868
0.000590736
0.000582154
0.000580822
0.000578835
0.000572629
0.000562103
0.000549043
0.000535296
0.000522025
0.000509665
0.000498218
0.000487566
0.000477687
0.000468759
0.000461188
0.00045561
0.000452808
0.00045372
0.00045952
0.000471831
0.000492428
0.000523201
0.000566278
0.000624182
0.000700623
0.000802978
0.000948217
0.00117307
0.00153842
0.00208094
0.00263286
0.00276429
0.00205999
0.000938902
0.000228516
0.00083613
0.000903018
0.000822712
0.000699596
0.00061852
0.000583358
0.000573576
0.000571824
0.000569578
0.000563542
0.000553367
0.000540834
0.000527634
0.000514855
0.000502913
0.000491811
0.000481426
0.000471722
0.000462848
0.000455181
0.00044932
0.000446066
0.000446403
0.000451191
0.000462546
0.000482381
0.000512614
0.000555474
0.000613343
0.000689226
0.000788897
0.000926829
0.00113778
0.00148897
0.0020411
0.00267362
0.00289834
0.00221761
0.00100274
0.000205764
0.000789188
0.000867387
0.000806845
0.000694829
0.000614868
0.000577621
0.000566027
0.000563526
0.000561119
0.000555458
0.000545848
0.000533958
0.000521364
0.000509118
0.00049765
0.000486983
0.000477
0.000467643
0.00045903
0.000451493
0.000445597
0.000442155
0.000442242
0.000446266
0.000456676
0.000475748
0.000505424
0.000548222
0.000606569
0.000682861
0.000780962
0.000912021
0.00110945
0.0014438
0.00199951
0.00269805
0.00302802
0.00237869
0.00106484
0.00018504
0.000743954
0.000834655
0.000792757
0.000694016
0.000615083
0.0005736
0.000559446
0.000555829
0.000553279
0.000548028
0.000539167
0.000528041
0.000516137
0.000504493
0.000493572
0.000483438
0.000473989
0.000465154
0.000457009
0.000449824
0.000444115
0.000440695
0.000440754
0.000444362
0.000454084
0.000472577
0.000501836
0.000544613
0.000603401
0.000680226
0.000777662
0.000903656
0.00108733
0.00140215
0.0019562
0.00270904
0.00315291
0.00254752
0.00112707
0.000165687
0.000700077
0.000804747
0.000778689
0.000695093
0.000616931
0.000572734
0.000554512
0.000548946
0.000545938
0.000541034
0.000532999
0.000522753
0.000511636
0.000500676
0.000490398
0.000480914
0.000472141
0.000463997
0.00045653
0.000449887
0.000444523
0.000441291
0.000441374
0.000444627
0.000453722
0.000471777
0.000500736
0.000543488
0.000602586
0.000679858
0.000777122
0.000900209
0.0010709
0.00136386
0.00190865
0.00271186
0.00327186
0.00272114
0.001187
0.000147522
0.000657957
0.000776852
0.000764331
0.000697831
0.00062125
0.000573945
0.000551323
0.000543168
0.000539272
0.000534489
0.000527197
0.000517856
0.000507605
0.000497435
0.000487903
0.000479173
0.000471197
0.000463911
0.000457139
0.00045115
0.000446424
0.00044371
0.000444011
0.000447248
0.000455998
0.000473585
0.000502171
0.000544949
0.000604744
0.000683141
0.000780531
0.000899803
0.00105956
0.00132928
0.00185614
0.00269991
0.00338279
0.00290057
0.0012457
0.000130101
0.000615744
0.000751
0.000748968
0.000702619
0.000629051
0.000577666
0.000551666
0.000538977
0.00053337
0.000528431
0.000521717
0.000513241
0.000503898
0.000494587
0.00048588
0.000477993
0.000470934
0.000464482
0.000458691
0.000453675
0.000449778
0.000447812
0.000448457
0.000451969
0.000460789
0.000478246
0.000506652
0.000549493
0.000609838
0.000689227
0.000787171
0.000903854
0.00105284
0.00129884
0.00180033
0.0026737
0.00348359
0.00308293
0.0013013
0.000113687
0.000574752
0.000725489
0.000734443
0.000704318
0.000638883
0.000585342
0.000554236
0.000538967
0.000529772
0.000523311
0.000516655
0.000508899
0.000500445
0.000492028
0.00048421
0.000477249
0.000471168
0.000465766
0.000461081
0.000457156
0.00045431
0.000453394
0.000454523
0.000458606
0.000467961
0.000485543
0.000513934
0.000556804
0.000617447
0.000697456
0.000795741
0.00091021
0.00104914
0.00127147
0.00174105
0.00263376
0.00357074
0.00326633
0.00135439
9.78679e-05
0.000531096
0.000699584
0.000720902
0.000702912
0.000650924
0.000597231
0.000560706
0.000541242
0.000530176
0.000521725
0.000513796
0.000505758
0.000497698
0.00049003
0.000483134
0.000477203
0.000471981
0.000467685
0.00046418
0.00046149
0.000459955
0.000460187
0.000462044
0.00046704
0.000477382
0.00049535
0.000523883
0.00056671
0.000627269
0.00070726
0.000805313
0.000917547
0.00104712
0.00124577
0.00167963
0.00257822
0.00364595
0.00344584
0.0014037
8.39092e-05
0.000490312
0.000672792
0.000706996
0.000698913
0.00066306
0.000612392
0.00057331
0.000548119
0.000533573
0.000523355
0.000514525
0.000506049
0.000497869
0.000490299
0.000483661
0.000478124
0.000473735
0.000470449
0.000468119
0.000466748
0.000466774
0.000467847
0.00047091
0.000477341
0.000488805
0.00050742
0.000536226
0.000578866
0.000638794
0.000717829
0.000814645
0.000923688
0.00104448
0.00121989
0.00161551
0.00250163
0.00370333
0.00361583
0.00144986
7.18813e-05
0.0004476
0.000648513
0.000693165
0.000691969
0.000672948
0.000630852
0.00059203
0.00056279
0.000543
0.00052957
0.00051879
0.000509167
0.000500396
0.000492626
0.000486081
0.000480874
0.000477107
0.00047462
0.000473355
0.000473427
0.000474345
0.000476697
0.000481393
0.000489283
0.000501907
0.000521354
0.00055046
0.000592634
0.000651184
0.000728021
0.000821976
0.000926336
0.00103964
0.00119343
0.00154923
0.00240946
0.00373832
0.00376868
0.00149254
6.19419e-05
0.000403979
0.000626609
0.000678461
0.000684437
0.000676654
0.000651054
0.000616165
0.000586466
0.000562852
0.000544402
0.000530326
0.000518446
0.000508186
0.000499492
0.000492458
0.000487109
0.000483496
0.000481362
0.000481086
0.000481776
0.000483675
0.00048743
0.000493445
0.000502669
0.000516439
0.000536671
0.000565874
0.000607078
0.000663285
0.000736478
0.000825242
0.000925839
0.00103135
0.0011663
0.00148424
0.00230982
0.00375293
0.00389388
0.00153301
5.37894e-05
0.000359678
0.000603962
0.000664298
0.000680203
0.000679642
0.000670206
0.000647279
0.000620174
0.000595665
0.000574214
0.000555389
0.000539345
0.000526112
0.000515253
0.000506639
0.000500187
0.000495882
0.000493314
0.000493162
0.000494045
0.000496386
0.000500872
0.000507768
0.000517915
0.000532466
0.000553086
0.000581864
0.00062135
0.000674121
0.000742254
0.00082538
0.000919561
0.00101993
0.0011465
0.00144375
0.00223224
0.00375515
0.00395604
0.00157257
4.84665e-05
0.000320977
0.000569916
0.000647603
0.000674147
0.000686156
0.000687594
0.000681202
0.000665296
0.000643564
0.000621541
0.000600221
0.000580587
0.000563019
0.000548107
0.000536045
0.000526773
0.000520149
0.000515732
0.00051374
0.00051405
0.000515728
0.000519628
0.000526482
0.00053674
0.00055136
0.00057167
0.000599313
0.000636335
0.000684894
0.000747142
0.0008241
0.00091458
0.00101477
0.00113964
0.00142938
0.00220025
0.00374716
0.00397676
0.00161631
4.8961e-05
0.000299099
0.000524562
0.000621162
0.000670061
0.000699448
0.000716899
0.000723665
0.000720313
0.000709867
0.000691174
0.000669908
0.000648043
0.000626888
0.000607475
0.000590471
0.000576212
0.000564819
0.000556173
0.000550363
0.000547358
0.000547749
0.000550012
0.000555357
0.000564992
0.000579146
0.000598775
0.000625221
0.000660091
0.000705513
0.00076368
0.000837514
0.000927669
0.00103949
0.00118248
0.00148621
0.00222429
0.00374602
0.003946
0.00163766
6.08493e-05
0.000299173
0.000477453
0.000596325
0.000676153
0.000729493
0.000766429
0.000790808
0.000801409
0.000799249
0.00079004
0.000771036
0.000747558
0.000722494
0.000697801
0.000674821
0.000654508
0.000637339
0.00062378
0.000614324
0.000608296
0.000607519
0.000609217
0.000614087
0.000624058
0.000639414
0.000660458
0.000688998
0.000726419
0.000776149
0.000839742
0.000925157
0.00103348
0.00118564
0.0013851
0.00174321
0.00247159
0.00382043
0.00385514
0.00164499
8.12104e-05
0.000326634
0.000484272
0.000615594
0.000721038
0.000806551
0.000869313
0.000910599
0.000931584
0.000933297
0.00092716
0.000911455
0.000888165
0.000862341
0.000836753
0.00081292
0.000792446
0.000775957
0.000763496
0.000754903
0.000752919
0.000755266
0.00076193
0.0007756
0.000795606
0.000823915
0.00086015
0.000908487
0.000967637
0.00104578
0.00114245
0.00127515
0.00143784
0.00167174
0.00195839
0.00240561
0.00304381
0.0039869
0.00377017
0.00162408
0.000126304
0.000431864
0.000591076
0.000758269
0.000901708
0.00102151
0.00111069
0.00117056
0.00120479
0.0012169
0.00121586
0.00121006
0.00119761
0.00118248
0.00116946
0.00115951
0.00115655
0.00115901
0.00116666
0.00118264
0.00120732
0.00124156
0.00128398
0.00133834
0.00140262
0.00148222
0.00157397
0.00168596
0.00181419
0.00196983
0.00214651
0.0023627
0.00262072
0.00295268
0.00333023
0.00380314
0.00421074
0.00437232
0.00369513
0.00154386
0.000233785
0.000747194
0.00109469
0.00143766
0.00166608
0.00183342
0.00195401
0.0020395
0.00209821
0.00213931
0.00216735
0.0021933
0.00222061
0.00225158
0.00228887
0.00233444
0.00238919
0.0024558
0.00253167
0.00262072
0.00271947
0.0028333
0.00295678
0.00309737
0.00324738
0.00341667
0.003596
0.00379558
0.004009
0.00423781
0.00449591
0.00474241
0.00506285
0.00528211
0.00561522
0.0055947
0.00537747
0.0046632
0.00328883
0.00137916
0.000158522
0.00026108
0.000359716
0.000471229
0.00057266
0.000661697
0.000736875
0.000799383
0.000849153
0.000888161
0.000917034
0.000937829
0.000952951
0.000963377
0.000971101
0.000976531
0.000981654
0.000985893
0.000991878
0.000997213
0.0010062
0.00101404
0.00102774
0.00103889
0.00105878
0.00107371
0.00110123
0.00112014
0.00115652
0.00117929
0.00122421
0.00125047
0.001299
0.00133164
0.00140059
0.00144312
0.00150673
0.00150337
0.00144777
0.00120749
)
;

boundaryField
{
    movingWall
    {
        type            kqRWallFunction;
        value           nonuniform List<scalar> 
40
(
0.000158522
0.00026108
0.000359716
0.000471229
0.00057266
0.000661697
0.000736875
0.000799383
0.000849153
0.000888161
0.000917034
0.000937829
0.000952951
0.000963377
0.000971101
0.000976531
0.000981654
0.000985893
0.000991878
0.000997213
0.0010062
0.00101404
0.00102774
0.00103889
0.00105878
0.00107371
0.00110123
0.00112014
0.00115652
0.00117929
0.00122421
0.00125047
0.001299
0.00133164
0.00140059
0.00144312
0.00150673
0.00150337
0.00144777
0.00120749
)
;
    }
    fixedWalls
    {
        type            kqRWallFunction;
        value           nonuniform List<scalar> 
120
(
1.34093e-06
6.3499e-06
1.79694e-05
4.06263e-05
7.7766e-05
0.000133429
0.000205966
0.00028511
0.000356294
0.000411925
0.000448431
0.000470302
0.000469756
0.000463298
0.000448039
0.000422739
0.000392617
0.000358066
0.00032239
0.000284457
0.000254195
0.000228516
0.000205764
0.00018504
0.000165687
0.000147522
0.000130101
0.000113687
9.78679e-05
8.39092e-05
7.18813e-05
6.19419e-05
5.37894e-05
4.84665e-05
4.8961e-05
6.08493e-05
8.12104e-05
0.000126304
0.000233785
0.000158522
2.08088e-06
4.35045e-06
3.81923e-06
2.90934e-06
3.47876e-06
6.51507e-06
1.47836e-05
3.44943e-05
9.43765e-05
0.000185234
0.000275199
0.000354799
0.000424184
0.000493071
0.00055682
0.00062218
0.00068466
0.000749245
0.000811807
0.000876207
0.000938902
0.00100274
0.00106484
0.00112707
0.001187
0.0012457
0.0013013
0.00135439
0.0014037
0.00144986
0.00149254
0.00153301
0.00157257
0.00161631
0.00163766
0.00164499
0.00162408
0.00154386
0.00137916
0.00120749
1.34093e-06
5.36969e-06
1.11274e-05
1.317e-05
1.34245e-05
1.45924e-05
1.80362e-05
2.44759e-05
3.10447e-05
3.71503e-05
4.98666e-05
7.26025e-05
9.07468e-05
0.000105317
0.000124777
0.000149055
0.000175104
0.000201312
0.00022964
0.000258915
0.000291209
0.000325949
0.00036529
0.00040986
0.000463069
0.000516444
0.000566472
0.000611399
0.000647546
0.000666303
0.000672968
0.00064765
0.000584577
0.000476854
0.000331898
0.000185709
8.51816e-05
3.37234e-05
1.03293e-05
2.08088e-06
)
;
    }
    frontAndBack
    {
        type            empty;
    }
}


// ************************************************************************* //
