/*--------------------------------*- C++ -*----------------------------------*\
  =========                 |
  \\      /  F ield         | OpenFOAM: The Open Source CFD Toolbox
   \\    /   O peration     | Website:  https://openfoam.org
    \\  /    A nd           | Version:  12
     \\/     M anipulation  |
\*---------------------------------------------------------------------------*/
FoamFile
{
    format      ascii;
    class       volScalarField;
    location    "4";
    object      nut;
}
// * * * * * * * * * * * * * * * * * * * * * * * * * * * * * * * * * * * * * //

dimensions      [0 2 -1 0 0 0 0];

internalField   nonuniform List<scalar> 
1600
(
9.43142e-09
3.77576e-08
7.82338e-08
9.25516e-08
9.42918e-08
1.02476e-07
1.26699e-07
1.72127e-07
2.18485e-07
2.61535e-07
3.51167e-07
5.11506e-07
6.39247e-07
7.41848e-07
8.78907e-07
1.04985e-06
1.23323e-06
1.41768e-06
1.61706e-06
1.82306e-06
2.05032e-06
2.29475e-06
2.57159e-06
2.88519e-06
3.25957e-06
3.63479e-06
3.98674e-06
4.30252e-06
4.55677e-06
4.68855e-06
4.73539e-06
4.55722e-06
4.11371e-06
3.35599e-06
2.33592e-06
1.30664e-06
5.99306e-07
2.37244e-07
7.26536e-08
1.46346e-08
4.4671e-08
1.17333e-06
3.57878e-06
4.7806e-06
5.05861e-06
5.11918e-06
5.42745e-06
5.81321e-06
5.75865e-06
5.53598e-06
6.01528e-06
7.45497e-06
8.64333e-06
9.48815e-06
1.05576e-05
1.19144e-05
1.35189e-05
1.49886e-05
1.66518e-05
1.81542e-05
1.97238e-05
2.11506e-05
2.2589e-05
2.38168e-05
2.47045e-05
2.54506e-05
2.6172e-05
2.66762e-05
2.68633e-05
2.65358e-05
2.62643e-05
2.4342e-05
2.19406e-05
1.85686e-05
1.39342e-05
8.77617e-06
4.16258e-06
1.67035e-06
5.94167e-07
3.05683e-08
1.26467e-07
3.06775e-06
8.04895e-06
1.04633e-05
1.14256e-05
1.22754e-05
1.37117e-05
1.50698e-05
1.57946e-05
1.62134e-05
1.63495e-05
1.595e-05
1.61678e-05
1.65475e-05
1.80158e-05
2.01701e-05
2.20955e-05
2.41923e-05
2.61179e-05
2.80157e-05
2.98671e-05
3.1381e-05
3.25706e-05
3.33341e-05
3.38404e-05
3.41758e-05
3.42407e-05
3.39908e-05
3.33338e-05
3.19173e-05
2.99361e-05
2.82505e-05
2.47856e-05
2.06911e-05
1.48191e-05
8.62626e-06
3.75469e-06
1.88619e-06
7.47089e-07
2.68269e-08
2.85999e-07
6.39674e-06
1.34422e-05
1.61597e-05
1.72853e-05
1.85787e-05
2.00368e-05
2.05955e-05
2.06603e-05
1.89831e-05
1.76803e-05
1.86266e-05
2.05688e-05
2.31265e-05
2.59286e-05
2.82792e-05
3.0561e-05
3.26217e-05
3.44679e-05
3.59883e-05
3.70254e-05
3.77719e-05
3.82148e-05
3.84584e-05
3.85142e-05
3.83173e-05
3.78603e-05
3.70873e-05
3.59545e-05
3.43735e-05
3.2268e-05
2.98402e-05
2.62753e-05
2.2825e-05
1.84148e-05
1.21069e-05
4.06341e-06
1.52452e-06
5.78762e-07
2.04333e-08
5.4752e-07
1.12454e-05
1.9137e-05
2.11739e-05
2.19873e-05
2.31816e-05
2.34121e-05
2.32076e-05
2.10972e-05
2.01388e-05
2.22735e-05
2.45419e-05
2.75475e-05
3.00874e-05
3.28926e-05
3.50587e-05
3.71646e-05
3.9031e-05
4.02581e-05
4.13253e-05
4.20128e-05
4.24922e-05
4.27113e-05
4.27444e-05
4.25861e-05
4.22022e-05
4.15605e-05
4.05575e-05
3.91351e-05
3.71974e-05
3.48528e-05
3.23564e-05
2.91008e-05
2.52268e-05
2.10446e-05
1.61058e-05
8.97904e-06
2.39231e-06
5.90763e-07
2.44458e-08
9.39425e-07
1.64334e-05
2.43559e-05
2.55122e-05
2.58258e-05
2.5717e-05
2.54357e-05
2.34136e-05
2.23577e-05
2.46403e-05
2.74552e-05
3.0444e-05
3.30806e-05
3.57594e-05
3.81374e-05
4.02554e-05
4.21213e-05
4.35609e-05
4.46746e-05
4.55698e-05
4.61386e-05
4.65177e-05
4.66768e-05
4.66404e-05
4.64321e-05
4.61311e-05
4.5738e-05
4.52902e-05
4.45547e-05
4.28783e-05
4.00837e-05
3.71243e-05
3.37216e-05
2.91695e-05
2.38367e-05
1.8728e-05
1.25091e-05
3.65972e-06
8.93828e-07
4.58258e-08
1.45021e-06
2.07332e-05
2.87502e-05
2.89452e-05
2.80599e-05
2.75935e-05
2.55318e-05
2.41769e-05
2.62077e-05
2.94116e-05
3.25237e-05
3.50164e-05
3.7577e-05
4.01103e-05
4.25742e-05
4.44549e-05
4.59382e-05
4.71339e-05
4.81004e-05
4.88796e-05
4.94439e-05
4.97611e-05
4.98498e-05
4.975e-05
4.95272e-05
4.92051e-05
4.87806e-05
4.82301e-05
4.76078e-05
4.69656e-05
4.57313e-05
4.28895e-05
3.98873e-05
3.60687e-05
2.99155e-05
2.21306e-05
1.50812e-05
7.42281e-06
1.54269e-06
1.04048e-07
2.00751e-06
2.45216e-05
3.19236e-05
3.10845e-05
3.01835e-05
2.77243e-05
2.60096e-05
2.70604e-05
3.05713e-05
3.38056e-05
3.63217e-05
3.86479e-05
4.13959e-05
4.39998e-05
4.5922e-05
4.76301e-05
4.91981e-05
5.04893e-05
5.14738e-05
5.21041e-05
5.23499e-05
5.23476e-05
5.22403e-05
5.20703e-05
5.18208e-05
5.14962e-05
5.11231e-05
5.07012e-05
5.01949e-05
4.95081e-05
4.86177e-05
4.70368e-05
4.34655e-05
4.0406e-05
3.64597e-05
2.92526e-05
1.94987e-05
9.52635e-06
2.06262e-06
2.42988e-07
2.50894e-06
2.71592e-05
3.36573e-05
3.31858e-05
3.04881e-05
2.81112e-05
2.7567e-05
3.09656e-05
3.44e-05
3.71486e-05
3.921e-05
4.19631e-05
4.47023e-05
4.70655e-05
4.91354e-05
5.10631e-05
5.248e-05
5.33602e-05
5.38954e-05
5.41244e-05
5.43122e-05
5.43753e-05
5.42984e-05
5.41139e-05
5.38134e-05
5.34307e-05
5.29992e-05
5.25534e-05
5.21094e-05
5.16329e-05
5.09956e-05
4.99684e-05
4.77473e-05
4.33503e-05
4.02267e-05
3.46304e-05
2.54738e-05
1.41073e-05
3.91042e-06
6.64825e-07
2.90082e-06
2.88666e-05
3.56169e-05
3.47818e-05
3.09277e-05
2.89775e-05
3.08105e-05
3.43778e-05
3.74304e-05
3.95924e-05
4.2038e-05
4.50417e-05
4.78191e-05
5.02464e-05
5.21395e-05
5.34674e-05
5.45274e-05
5.51738e-05
5.57633e-05
5.61632e-05
5.63627e-05
5.66412e-05
5.66091e-05
5.64401e-05
5.6091e-05
5.55941e-05
5.49864e-05
5.43314e-05
5.37013e-05
5.3142e-05
5.26124e-05
5.19021e-05
5.05656e-05
4.73949e-05
4.36167e-05
3.94173e-05
3.05461e-05
1.79405e-05
6.12603e-06
1.30354e-06
3.158e-06
2.98956e-05
3.69207e-05
3.52365e-05
3.16383e-05
3.05618e-05
3.38106e-05
3.7119e-05
3.97622e-05
4.18221e-05
4.48888e-05
4.79982e-05
5.06327e-05
5.24423e-05
5.39986e-05
5.52545e-05
5.62805e-05
5.71143e-05
5.78734e-05
5.85858e-05
5.90464e-05
5.93217e-05
5.9548e-05
5.943e-05
5.90662e-05
5.84444e-05
5.75968e-05
5.66012e-05
5.55828e-05
5.46908e-05
5.40346e-05
5.35794e-05
5.30104e-05
5.04712e-05
4.60228e-05
4.31718e-05
3.58964e-05
2.2887e-05
8.21826e-06
1.93582e-06
3.31216e-06
3.04681e-05
3.80496e-05
3.60066e-05
3.23241e-05
3.30306e-05
3.62685e-05
3.92997e-05
4.16787e-05
4.41806e-05
4.75615e-05
5.03067e-05
5.22918e-05
5.41583e-05
5.56789e-05
5.70247e-05
5.82379e-05
5.93661e-05
6.04284e-05
6.14982e-05
6.22313e-05
6.26285e-05
6.31501e-05
6.31483e-05
6.28234e-05
6.2118e-05
6.10368e-05
5.96391e-05
5.80634e-05
5.65246e-05
5.52624e-05
5.4429e-05
5.39369e-05
5.33034e-05
4.92414e-05
4.5557e-05
3.98861e-05
2.71344e-05
1.10304e-05
2.49472e-06
3.30836e-06
3.04402e-05
3.83498e-05
3.65836e-05
3.3421e-05
3.51543e-05
3.82441e-05
4.11307e-05
4.3462e-05
4.63831e-05
4.94435e-05
5.1668e-05
5.38684e-05
5.5712e-05
5.73666e-05
5.8945e-05
6.04712e-05
6.19569e-05
6.33752e-05
6.47888e-05
6.58227e-05
6.63893e-05
6.72064e-05
6.73817e-05
6.716e-05
6.64577e-05
6.52385e-05
6.35208e-05
6.14204e-05
5.91789e-05
5.71423e-05
5.56453e-05
5.48133e-05
5.43783e-05
5.19226e-05
4.75652e-05
4.34381e-05
3.12725e-05
1.34101e-05
2.98229e-06
3.26293e-06
3.02463e-05
3.87622e-05
3.71253e-05
3.46159e-05
3.68038e-05
3.98273e-05
4.2672e-05
4.5021e-05
4.81154e-05
5.06801e-05
5.30598e-05
5.52772e-05
5.7244e-05
5.91445e-05
6.10407e-05
6.29289e-05
6.47808e-05
6.65446e-05
6.8241e-05
6.95785e-05
7.03217e-05
7.13886e-05
7.17795e-05
7.1713e-05
7.11015e-05
6.98658e-05
6.7966e-05
6.54564e-05
6.25477e-05
5.96365e-05
5.72253e-05
5.5672e-05
5.48265e-05
5.37532e-05
4.92243e-05
4.59901e-05
3.48315e-05
1.60608e-05
3.46608e-06
3.15553e-06
2.9749e-05
3.87389e-05
3.75057e-05
3.5799e-05
3.8092e-05
4.10981e-05
4.3962e-05
4.63605e-05
4.92976e-05
5.18099e-05
5.43173e-05
5.66125e-05
5.87974e-05
6.10006e-05
6.32405e-05
6.54809e-05
6.76622e-05
6.97169e-05
7.15918e-05
7.32174e-05
7.42176e-05
7.5348e-05
7.59923e-05
7.61101e-05
7.56567e-05
7.45219e-05
7.2607e-05
6.98825e-05
6.64744e-05
6.27575e-05
5.93679e-05
5.70005e-05
5.59602e-05
5.56479e-05
5.15122e-05
4.7897e-05
3.80301e-05
1.83086e-05
3.91401e-06
2.97735e-06
2.89721e-05
3.84364e-05
3.77643e-05
3.68416e-05
3.90971e-05
4.21032e-05
4.49978e-05
4.74479e-05
5.01873e-05
5.28708e-05
5.54484e-05
5.7902e-05
6.03474e-05
6.28612e-05
6.54236e-05
6.79673e-05
7.04108e-05
7.26762e-05
7.46945e-05
7.65332e-05
7.77896e-05
7.88861e-05
7.9747e-05
8.00519e-05
7.97928e-05
7.88485e-05
7.70746e-05
7.43543e-05
7.06875e-05
6.63274e-05
6.18958e-05
5.82929e-05
5.62361e-05
5.56478e-05
5.33438e-05
4.91842e-05
4.05906e-05
2.07222e-05
4.3731e-06
2.7652e-06
2.80593e-05
3.79127e-05
3.79599e-05
3.75858e-05
3.98521e-05
4.28751e-05
4.57936e-05
4.82805e-05
5.09991e-05
5.37875e-05
5.64761e-05
5.91239e-05
6.18299e-05
6.46263e-05
6.74609e-05
7.02433e-05
7.28798e-05
7.52931e-05
7.74292e-05
7.93391e-05
8.08318e-05
8.18721e-05
8.28735e-05
8.33411e-05
8.32816e-05
8.25795e-05
8.10653e-05
7.85513e-05
7.49086e-05
7.02233e-05
6.50106e-05
6.02881e-05
5.71441e-05
5.57858e-05
5.44624e-05
5.01009e-05
4.27028e-05
2.28172e-05
4.81211e-06
2.52183e-06
2.70269e-05
3.72202e-05
3.80437e-05
3.8108e-05
4.04033e-05
4.34458e-05
4.63798e-05
4.89366e-05
5.17082e-05
5.45699e-05
5.73887e-05
6.02301e-05
6.31672e-05
6.61967e-05
6.92417e-05
7.21972e-05
7.49651e-05
7.74736e-05
7.96834e-05
8.15899e-05
8.32137e-05
8.42419e-05
8.52947e-05
8.58813e-05
8.6004e-05
8.55622e-05
8.43804e-05
8.2221e-05
7.88375e-05
7.41182e-05
6.83652e-05
6.25808e-05
5.8264e-05
5.62786e-05
5.54196e-05
5.09426e-05
4.44399e-05
2.49652e-05
5.26581e-06
2.27053e-06
2.59345e-05
3.63772e-05
3.7982e-05
3.84376e-05
4.07507e-05
4.38276e-05
4.67963e-05
4.94438e-05
5.22825e-05
5.52131e-05
5.8156e-05
6.11652e-05
6.42863e-05
6.74897e-05
7.06825e-05
7.37519e-05
7.65985e-05
7.91542e-05
8.13845e-05
8.32819e-05
8.49048e-05
8.59718e-05
8.6999e-05
8.76581e-05
8.79351e-05
8.77496e-05
8.69358e-05
8.52286e-05
8.22906e-05
7.78219e-05
7.18489e-05
6.51839e-05
5.95708e-05
5.66483e-05
5.60508e-05
5.17824e-05
4.58368e-05
2.68421e-05
5.70536e-06
2.0033e-06
2.48583e-05
3.54487e-05
3.77817e-05
3.86469e-05
4.09772e-05
4.4045e-05
4.7055e-05
4.98112e-05
5.27078e-05
5.56988e-05
5.87426e-05
6.18782e-05
6.51281e-05
6.84453e-05
7.17283e-05
7.48609e-05
7.77438e-05
8.031e-05
8.25265e-05
8.43885e-05
8.5939e-05
8.70681e-05
8.80193e-05
8.8713e-05
8.91163e-05
8.9171e-05
8.87347e-05
8.75311e-05
8.51597e-05
8.11649e-05
7.5286e-05
6.80146e-05
6.11257e-05
5.69322e-05
5.59253e-05
5.26914e-05
4.69826e-05
2.87171e-05
6.15779e-06
1.79009e-06
2.34466e-05
3.43994e-05
3.74684e-05
3.86532e-05
4.09764e-05
4.40895e-05
4.71601e-05
5.00274e-05
5.29708e-05
5.60084e-05
5.91164e-05
6.23296e-05
6.56517e-05
6.9026e-05
7.23482e-05
7.55018e-05
7.83875e-05
8.09372e-05
8.31175e-05
8.49258e-05
8.63863e-05
8.75194e-05
8.84242e-05
8.91201e-05
8.96286e-05
8.98994e-05
8.98334e-05
8.91517e-05
8.74092e-05
8.40365e-05
7.85162e-05
7.09504e-05
6.29485e-05
5.73968e-05
5.5632e-05
5.34586e-05
4.80003e-05
3.03713e-05
6.59829e-06
1.60917e-06
2.18989e-05
3.30185e-05
3.71187e-05
3.8643e-05
4.09997e-05
4.39902e-05
4.7113e-05
5.00749e-05
5.30515e-05
5.61279e-05
5.92567e-05
6.24953e-05
6.58346e-05
6.9214e-05
7.25306e-05
7.56696e-05
7.85307e-05
8.10428e-05
8.31715e-05
8.49164e-05
8.6302e-05
8.7364e-05
8.81545e-05
8.87762e-05
8.94229e-05
8.99648e-05
9.03105e-05
9.01512e-05
8.90558e-05
8.63825e-05
8.14106e-05
7.38382e-05
6.49318e-05
5.80143e-05
5.52989e-05
5.39431e-05
4.89366e-05
3.19672e-05
7.04683e-06
1.44887e-06
2.02925e-05
3.1393e-05
3.65688e-05
3.83012e-05
4.05809e-05
4.38039e-05
4.69379e-05
4.99562e-05
5.29467e-05
5.6032e-05
5.91474e-05
6.23638e-05
6.56699e-05
6.90077e-05
7.2279e-05
7.53679e-05
7.8174e-05
8.06219e-05
8.26898e-05
8.43837e-05
8.57252e-05
8.67369e-05
8.745e-05
8.79499e-05
8.86241e-05
8.93406e-05
9.00009e-05
9.03989e-05
9.00713e-05
8.82974e-05
8.404e-05
7.65351e-05
6.69531e-05
5.87867e-05
5.51029e-05
5.40781e-05
4.97725e-05
3.34165e-05
7.48314e-06
1.30285e-06
1.86481e-05
2.96374e-05
3.58414e-05
3.80825e-05
4.03881e-05
4.32345e-05
4.65752e-05
4.96513e-05
5.26581e-05
5.57164e-05
5.87915e-05
6.19417e-05
6.51721e-05
6.84223e-05
7.15607e-05
7.45273e-05
7.72416e-05
7.9661e-05
8.17348e-05
8.34296e-05
8.47582e-05
8.57709e-05
8.65378e-05
8.70801e-05
8.78399e-05
8.86952e-05
8.95314e-05
9.03156e-05
9.05449e-05
8.94271e-05
8.60108e-05
7.9071e-05
6.88825e-05
5.95629e-05
5.50033e-05
5.40506e-05
5.04662e-05
3.48558e-05
7.92039e-06
1.16649e-06
1.7002e-05
2.78211e-05
3.45703e-05
3.77994e-05
4.00541e-05
4.28678e-05
4.59873e-05
4.91781e-05
5.21677e-05
5.51614e-05
5.81681e-05
6.12334e-05
6.431e-05
6.73719e-05
7.0458e-05
7.34059e-05
7.61186e-05
7.85191e-05
8.05691e-05
8.22193e-05
8.3485e-05
8.44537e-05
8.51949e-05
8.57012e-05
8.65281e-05
8.76986e-05
8.89219e-05
9.00906e-05
9.06816e-05
8.99611e-05
8.71243e-05
8.11407e-05
7.06666e-05
6.0247e-05
5.48045e-05
5.39826e-05
5.10394e-05
3.62132e-05
8.34148e-06
1.03849e-06
1.5382e-05
2.59038e-05
3.31201e-05
3.72882e-05
3.95114e-05
4.23946e-05
4.52895e-05
4.84268e-05
5.15282e-05
5.44705e-05
5.73766e-05
6.02396e-05
6.31808e-05
6.61827e-05
6.91475e-05
7.19738e-05
7.45854e-05
7.69179e-05
7.88694e-05
8.04669e-05
8.17528e-05
8.27911e-05
8.35242e-05
8.40557e-05
8.49212e-05
8.62233e-05
8.76556e-05
8.92272e-05
9.04359e-05
9.04527e-05
8.81514e-05
8.23552e-05
7.22207e-05
6.08436e-05
5.43948e-05
5.35327e-05
5.14665e-05
3.7532e-05
8.75397e-06
9.15742e-07
1.37979e-05
2.41019e-05
3.13669e-05
3.6665e-05
3.89792e-05
4.16474e-05
4.47561e-05
4.7525e-05
5.04664e-05
5.3407e-05
5.62116e-05
5.90301e-05
6.18744e-05
6.46969e-05
6.74573e-05
7.01294e-05
7.26374e-05
7.487e-05
7.68044e-05
7.84212e-05
7.97378e-05
8.08641e-05
8.15695e-05
8.21813e-05
8.31373e-05
8.45622e-05
8.61702e-05
8.80357e-05
8.96623e-05
9.01892e-05
8.85458e-05
8.33966e-05
7.34027e-05
6.12922e-05
5.38035e-05
5.30358e-05
5.17846e-05
3.87679e-05
9.14466e-06
8.0009e-07
1.23054e-05
2.22613e-05
2.95201e-05
3.55002e-05
3.83114e-05
4.08723e-05
4.39156e-05
4.69246e-05
4.95313e-05
5.22114e-05
5.49267e-05
5.76428e-05
6.02902e-05
6.29237e-05
6.55152e-05
6.80316e-05
7.04149e-05
7.25696e-05
7.44744e-05
7.60969e-05
7.74599e-05
7.8711e-05
7.93671e-05
8.01138e-05
8.12307e-05
8.27344e-05
8.4473e-05
8.65423e-05
8.84679e-05
8.93636e-05
8.81342e-05
8.35796e-05
7.38621e-05
6.14528e-05
5.2928e-05
5.21682e-05
5.19714e-05
3.99204e-05
9.51766e-06
6.88632e-07
1.088e-05
2.05605e-05
2.76144e-05
3.38712e-05
3.75826e-05
4.01242e-05
4.28603e-05
4.59889e-05
4.88056e-05
5.1318e-05
5.37537e-05
5.61638e-05
5.85812e-05
6.10135e-05
6.34368e-05
6.58135e-05
6.80188e-05
7.00813e-05
7.19396e-05
7.35651e-05
7.50019e-05
7.63282e-05
7.69624e-05
7.79022e-05
7.92285e-05
8.07575e-05
8.25699e-05
8.47338e-05
8.68044e-05
8.78994e-05
8.6907e-05
8.27389e-05
7.37843e-05
6.11993e-05
5.18585e-05
5.10683e-05
5.20384e-05
4.09597e-05
9.86425e-06
5.90316e-07
9.68726e-06
1.90867e-05
2.56544e-05
3.1949e-05
3.66092e-05
3.92827e-05
4.19387e-05
4.47578e-05
4.77189e-05
5.03364e-05
5.27309e-05
5.49669e-05
5.71472e-05
5.93032e-05
6.14385e-05
6.35338e-05
6.55641e-05
6.75014e-05
6.92931e-05
7.09125e-05
7.24601e-05
7.36443e-05
7.44694e-05
7.56369e-05
7.7086e-05
7.85938e-05
8.04196e-05
8.25451e-05
8.45643e-05
8.56438e-05
8.46908e-05
8.06331e-05
7.24312e-05
5.98808e-05
5.04381e-05
4.95804e-05
5.1964e-05
4.18576e-05
1.01886e-05
5.05626e-07
8.67467e-06
1.79807e-05
2.37281e-05
2.97981e-05
3.52736e-05
3.8443e-05
4.10998e-05
4.3698e-05
4.63609e-05
4.89983e-05
5.13672e-05
5.35197e-05
5.55398e-05
5.749e-05
5.94029e-05
6.128e-05
6.31342e-05
6.49227e-05
6.66319e-05
6.82726e-05
6.97203e-05
7.08295e-05
7.19409e-05
7.3263e-05
7.47083e-05
7.61851e-05
7.79073e-05
7.98154e-05
8.15372e-05
8.23412e-05
8.11707e-05
7.69592e-05
6.96201e-05
5.76956e-05
4.85681e-05
4.77277e-05
5.16308e-05
4.2586e-05
1.04886e-05
4.35645e-07
7.96254e-06
1.70655e-05
2.21357e-05
2.77118e-05
3.32367e-05
3.74355e-05
4.02461e-05
4.28678e-05
4.53436e-05
4.76651e-05
4.99331e-05
5.19987e-05
5.3897e-05
5.56883e-05
5.74201e-05
5.91115e-05
6.07883e-05
6.24052e-05
6.40753e-05
6.55525e-05
6.69506e-05
6.80142e-05
6.92736e-05
7.06472e-05
7.19729e-05
7.33161e-05
7.47537e-05
7.62145e-05
7.73513e-05
7.76046e-05
7.58943e-05
7.17967e-05
6.50387e-05
5.43178e-05
4.56433e-05
4.55485e-05
5.11754e-05
4.30676e-05
1.07729e-05
3.78216e-07
7.5575e-06
1.6417e-05
2.12613e-05
2.63244e-05
3.13475e-05
3.60904e-05
3.95324e-05
4.21658e-05
4.45858e-05
4.68032e-05
4.87697e-05
5.05793e-05
5.23187e-05
5.39682e-05
5.55459e-05
5.70723e-05
5.85803e-05
6.00159e-05
6.15626e-05
6.2913e-05
6.41019e-05
6.51358e-05
6.63198e-05
6.75271e-05
6.85479e-05
6.95323e-05
7.04197e-05
7.11603e-05
7.14169e-05
7.08978e-05
6.87267e-05
6.45634e-05
5.83527e-05
4.99476e-05
4.33628e-05
4.33717e-05
5.06036e-05
4.2762e-05
1.10512e-05
3.407e-07
7.55286e-06
1.58001e-05
2.07103e-05
2.48811e-05
2.98128e-05
3.44087e-05
3.85971e-05
4.18865e-05
4.43727e-05
4.65407e-05
4.84092e-05
5.00519e-05
5.14961e-05
5.284e-05
5.41378e-05
5.54139e-05
5.66736e-05
5.7865e-05
5.90328e-05
6.02432e-05
6.10168e-05
6.17081e-05
6.25395e-05
6.324e-05
6.36768e-05
6.39675e-05
6.39833e-05
6.37691e-05
6.29596e-05
6.16441e-05
5.90576e-05
5.54862e-05
5.02449e-05
4.42215e-05
4.02001e-05
4.22336e-05
4.97602e-05
4.23384e-05
1.13582e-05
3.4409e-07
8.17765e-06
1.54243e-05
2.01662e-05
2.43686e-05
2.89379e-05
3.34209e-05
3.75069e-05
4.10586e-05
4.41629e-05
4.64279e-05
4.83119e-05
4.99018e-05
5.12451e-05
5.23951e-05
5.34056e-05
5.42831e-05
5.49735e-05
5.55088e-05
5.59377e-05
5.63373e-05
5.64333e-05
5.64915e-05
5.64831e-05
5.62688e-05
5.58394e-05
5.52267e-05
5.42569e-05
5.31616e-05
5.15067e-05
4.98401e-05
4.73008e-05
4.47838e-05
4.12552e-05
3.81507e-05
3.67993e-05
4.01812e-05
4.82101e-05
4.13446e-05
1.15086e-05
4.27728e-07
9.88325e-06
1.59336e-05
2.08977e-05
2.48158e-05
2.93174e-05
3.37284e-05
3.80265e-05
4.17781e-05
4.48666e-05
4.75914e-05
4.93478e-05
5.04843e-05
5.11465e-05
5.14326e-05
5.14258e-05
5.12069e-05
5.08393e-05
5.02922e-05
4.98126e-05
4.89189e-05
4.83772e-05
4.75907e-05
4.6388e-05
4.52483e-05
4.39654e-05
4.2744e-05
4.13711e-05
4.01283e-05
3.86169e-05
3.75768e-05
3.61669e-05
3.5532e-05
3.45187e-05
3.47016e-05
3.58293e-05
4.07749e-05
4.68826e-05
3.94131e-05
1.15599e-05
5.7107e-07
1.16657e-05
1.76669e-05
2.19119e-05
2.6165e-05
3.05104e-05
3.46417e-05
3.82947e-05
4.1108e-05
4.31394e-05
4.48742e-05
4.59067e-05
4.6173e-05
4.59338e-05
4.53413e-05
4.44663e-05
4.34013e-05
4.21723e-05
4.07296e-05
3.93503e-05
3.80967e-05
3.6658e-05
3.52571e-05
3.39712e-05
3.28594e-05
3.18473e-05
3.10721e-05
3.04341e-05
3.0156e-05
3.00393e-05
3.03958e-05
3.08599e-05
3.20828e-05
3.33843e-05
3.56611e-05
3.83853e-05
4.30046e-05
4.4964e-05
3.76453e-05
1.14124e-05
8.88466e-07
1.49851e-05
1.88495e-05
2.28988e-05
2.67556e-05
3.02672e-05
3.32773e-05
3.56134e-05
3.71656e-05
3.79863e-05
3.82107e-05
3.82505e-05
3.77999e-05
3.68841e-05
3.59172e-05
3.4869e-05
3.38366e-05
3.27802e-05
3.17338e-05
3.08346e-05
3.01481e-05
2.95962e-05
2.91989e-05
2.89869e-05
2.8957e-05
2.91471e-05
2.952e-05
3.01569e-05
3.09988e-05
3.21407e-05
3.35684e-05
3.52865e-05
3.73908e-05
3.95876e-05
4.23241e-05
4.46884e-05
4.68766e-05
4.37691e-05
3.44159e-05
1.08477e-05
1.6448e-06
1.81478e-05
2.05151e-05
2.46671e-05
2.77422e-05
3.01576e-05
3.20063e-05
3.335e-05
3.42405e-05
3.47896e-05
3.50033e-05
3.51033e-05
3.51361e-05
3.50798e-05
3.5028e-05
3.4989e-05
3.50146e-05
3.51098e-05
3.52713e-05
3.55155e-05
3.58441e-05
3.62788e-05
3.67903e-05
3.74272e-05
3.81172e-05
3.89641e-05
3.98308e-05
4.0895e-05
4.19452e-05
4.32176e-05
4.44988e-05
4.58834e-05
4.7554e-05
4.87203e-05
5.03374e-05
4.96471e-05
4.77189e-05
4.1841e-05
2.66416e-05
9.68917e-06
1.11526e-06
1.83664e-06
2.52979e-06
3.31355e-06
4.02634e-06
4.65198e-06
5.18028e-06
5.61946e-06
5.96918e-06
6.24311e-06
6.44575e-06
6.59162e-06
6.69757e-06
6.77053e-06
6.82444e-06
6.86224e-06
6.89789e-06
6.92731e-06
6.96907e-06
7.00626e-06
7.06922e-06
7.12401e-06
7.22013e-06
7.29834e-06
7.43803e-06
7.54282e-06
7.73625e-06
7.86898e-06
8.12482e-06
8.28479e-06
8.6005e-06
8.78562e-06
9.12664e-06
9.35472e-06
9.84146e-06
1.01394e-05
1.05873e-05
1.05631e-05
1.01731e-05
8.48475e-06
)
;

boundaryField
{
    movingWall
    {
        type            nutkWallFunction;
        Cmu             0.09;
        kappa           0.41;
        E               9.8;
        value           uniform 0;
    }
    fixedWalls
    {
        type            nutkWallFunction;
        Cmu             0.09;
        kappa           0.41;
        E               9.8;
        value           uniform 0;
    }
    frontAndBack
    {
        type            empty;
    }
}


// ************************************************************************* //
