/*--------------------------------*- C++ -*----------------------------------*\
  =========                 |
  \\      /  F ield         | OpenFOAM: The Open Source CFD Toolbox
   \\    /   O peration     | Website:  https://openfoam.org
    \\  /    A nd           | Version:  12
     \\/     M anipulation  |
\*---------------------------------------------------------------------------*/
FoamFile
{
    format      ascii;
    class       volScalarField;
    location    "4";
    object      p;
}
// * * * * * * * * * * * * * * * * * * * * * * * * * * * * * * * * * * * * * //

dimensions      [0 2 -2 0 0 0 0];

internalField   nonuniform List<scalar> 
1600
(
7.14685e-09
-1.41711e-05
-7.58209e-05
-0.000171009
-0.000268515
-0.000357377
-0.000442835
-0.000539698
-0.000658825
-0.000801335
-0.000971535
-0.00120547
-0.00155295
-0.00180076
-0.00193904
-0.00220546
-0.00268157
-0.00328805
-0.00391585
-0.00445751
-0.00482734
-0.00495871
-0.0048024
-0.0043178
-0.00350374
-0.00237232
-0.000928223
0.000785066
0.002678
0.00457806
0.00625169
0.00744111
0.00795671
0.00776478
0.00693799
0.00611026
0.00560122
0.00550591
0.00556785
0.00559658
-7.98783e-06
-3.77295e-05
-0.000105326
-0.000199497
-0.000281178
-0.000345207
-0.000405223
-0.000484089
-0.000588919
-0.000709551
-0.000828027
-0.000997022
-0.00129658
-0.00168947
-0.00210922
-0.00258731
-0.00316022
-0.00379598
-0.00442023
-0.00494787
-0.00530626
-0.00543703
-0.0052994
-0.00486465
-0.00413297
-0.00307412
-0.00170216
-6.10273e-05
0.00175751
0.0036127
0.00529893
0.00656396
0.00720459
0.00714146
0.00648179
0.00567709
0.00528548
0.00533506
0.00545559
0.00551524
-6.54688e-06
-6.48011e-05
-0.000151082
-0.000246432
-0.00031262
-0.000344488
-0.000365091
-0.000396191
-0.00046113
-0.000604744
-0.000856704
-0.00119659
-0.0016312
-0.00216172
-0.00277314
-0.00343777
-0.00412367
-0.00479506
-0.00540223
-0.00589504
-0.00622285
-0.00634535
-0.00622868
-0.00585128
-0.00518545
-0.00422219
-0.00297279
-0.00146983
0.00022315
0.00199883
0.00369292
0.00509534
0.00599358
0.00625268
0.00594791
0.00543148
0.00517077
0.00522482
0.0053471
0.00538943
2.60887e-05
-6.20362e-05
-0.000177767
-0.000267421
-0.000311116
-0.000324106
-0.00033899
-0.000389393
-0.000513837
-0.000768989
-0.00119525
-0.00176768
-0.00242796
-0.00314464
-0.0039
-0.00466504
-0.00540208
-0.00607723
-0.00666336
-0.00712767
-0.0074348
-0.00755229
-0.00744967
-0.0071114
-0.00651959
-0.00566848
-0.00456621
-0.00323396
-0.00171016
-6.38284e-05
0.00159268
0.00310557
0.00428306
0.00498898
0.00523394
0.0052028
0.00520608
0.00523362
0.00529181
0.0052897
0.000151719
2.35033e-05
-0.000115367
-0.000205725
-0.000254581
-0.000289139
-0.000355535
-0.00050809
-0.000800885
-0.00127299
-0.00192385
-0.0027029
-0.00354486
-0.00440445
-0.00525133
-0.00606047
-0.00681128
-0.00748888
-0.00807132
-0.00851874
-0.00880617
-0.00891173
-0.00882419
-0.00853065
-0.00801596
-0.00727935
-0.0063221
-0.00515507
-0.00380414
-0.00231614
-0.000760751
0.000770033
0.00216275
0.00331513
0.00417197
0.00475841
0.00514344
0.00531643
0.00527784
0.00521577
0.000403899
0.000222291
6.92148e-05
-4.58365e-05
-0.000140744
-0.000259708
-0.000463311
-0.000813846
-0.00135038
-0.00206954
-0.0029288
-0.00386777
-0.00483258
-0.00577985
-0.00668066
-0.00751929
-0.00827947
-0.00894199
-0.00948189
-0.00988426
-0.0101402
-0.0102372
-0.0101676
-0.00992196
-0.00948975
-0.00886891
-0.00805863
-0.00706186
-0.00588851
-0.00456006
-0.00311447
-0.00160884
-0.000106424
0.00135197
0.00271503
0.00389186
0.00475656
0.00524441
0.00521938
0.0051128
0.000757855
0.00053763
0.000346281
0.00017758
-1.29542e-05
-0.00028729
-0.000707743
-0.00131633
-0.00211192
-0.00305421
-0.00408172
-0.00513843
-0.00618046
-0.00717238
-0.00809137
-0.00892258
-0.00965291
-0.0102715
-0.0107661
-0.0111308
-0.0113606
-0.0114497
-0.0113935
-0.0111862
-0.0108228
-0.0103007
-0.0096186
-0.00877581
-0.00777335
-0.00661561
-0.00531344
-0.00388491
-0.00234913
-0.0007239
0.000957046
0.00259491
0.00396891
0.00486068
0.00514661
0.00494828
0.00115979
0.000903085
0.000643768
0.000386463
5.18114e-05
-0.000433515
-0.0011119
-0.0019844
-0.00301137
-0.00413043
-0.00527928
-0.00641138
-0.00748985
-0.00848868
-0.00939217
-0.0101903
-0.0108768
-0.0114479
-0.0118997
-0.0122304
-0.0124376
-0.012519
-0.0124726
-0.0122957
-0.0119862
-0.0115427
-0.0109634
-0.0102461
-0.00938748
-0.00838292
-0.00722742
-0.00591485
-0.00443434
-0.00276997
-0.00092656
0.00100792
0.00280593
0.00418545
0.0049372
0.00465957
0.00150202
0.00119119
0.000856449
0.000488428
-2.31042e-05
-0.000741331
-0.00167154
-0.00277453
-0.00398352
-0.00522686
-0.00645184
-0.0076195
-0.00870152
-0.00968113
-0.0105499
-0.0113043
-0.0119439
-0.0124696
-0.012882
-0.0131818
-0.013369
-0.0134434
-0.0134048
-0.0132521
-0.0129852
-0.0126036
-0.012106
-0.0114896
-0.0107492
-0.00987538
-0.00885417
-0.00766561
-0.0062825
-0.00466913
-0.00279623
-0.000706166
0.00139512
0.00321395
0.00436717
0.004359
0.00167018
0.00131385
0.000899358
0.000408146
-0.000286256
-0.00122194
-0.00236391
-0.00364484
-0.00497783
-0.00629662
-0.00755694
-0.00872761
-0.00978951
-0.0107341
-0.0115595
-0.0122675
-0.0128619
-0.0133464
-0.0137241
-0.0139974
-0.0141681
-0.0142373
-0.0142055
-0.0140728
-0.0138396
-0.0135062
-0.0130719
-0.0125345
-0.0118887
-0.0111241
-0.0102231
-0.00915956
-0.0078977
-0.00639047
-0.00458196
-0.00245912
-0.000192528
0.00190626
0.00349567
0.00431274
0.00160511
0.00121182
0.000721937
0.000110925
-0.000746638
-0.00186013
-0.00315986
-0.00455372
-0.00595769
-0.00730905
-0.00857135
-0.00972127
-0.010748
-0.0116496
-0.0124291
-0.0130922
-0.0136453
-0.0140941
-0.0144432
-0.0146962
-0.0148553
-0.014922
-0.014897
-0.0147814
-0.0145754
-0.0142796
-0.0138942
-0.0134177
-0.012846
-0.0121695
-0.011371
-0.0104234
-0.00928887
-0.0079179
-0.00624423
-0.00420832
-0.00189972
0.000318056
0.0022423
0.00358647
0.0012905
0.000869372
0.000315889
-0.000394881
-0.00138261
-0.00261904
-0.0040166
-0.00546663
-0.00689619
-0.00824502
-0.00948464
-0.0105982
-0.0115813
-0.0124369
-0.0131717
-0.0137938
-0.0143115
-0.0147313
-0.0150587
-0.0152974
-0.0154497
-0.0155169
-0.0154998
-0.0153992
-0.0152155
-0.0149496
-0.0146022
-0.0141728
-0.0136588
-0.0130528
-0.0123402
-0.0114962
-0.0104843
-0.00925717
-0.00775174
-0.00588588
-0.00364893
-0.00143357
0.00054495
0.00199308
0.000745734
0.000310993
-0.00028778
-0.0010717
-0.00214415
-0.0034523
-0.00488871
-0.00635399
-0.00777259
-0.00909346
-0.0102938
-0.0113618
-0.0122978
-0.0131081
-0.0138019
-0.0143887
-0.0148774
-0.015275
-0.0155869
-0.0158166
-0.0159661
-0.0160364
-0.0160279
-0.0159411
-0.0157764
-0.0155347
-0.0152172
-0.0148243
-0.0143552
-0.013805
-0.0131631
-0.0124089
-0.0115102
-0.0104229
-0.00909078
-0.00743429
-0.00539856
-0.00325533
-0.00141116
-8.36851e-05
2.36561e-05
-0.000409416
-0.00103223
-0.00186284
-0.00297542
-0.0043088
-0.00574033
-0.0071879
-0.00857112
-0.0098479
-0.0109993
-0.0120179
-0.0129072
-0.0136755
-0.0143334
-0.0148909
-0.0153569
-0.0157383
-0.0160399
-0.0162649
-0.0164147
-0.0164897
-0.0164902
-0.0164162
-0.0162679
-0.0160463
-0.0157527
-0.0153886
-0.0149546
-0.0144488
-0.0138643
-0.0131861
-0.0123877
-0.0114305
-0.0102652
-0.00882646
-0.00705294
-0.00506333
-0.00344093
-0.00231794
-0.000803997
-0.00122375
-0.00185099
-0.00270226
-0.00382291
-0.0051423
-0.00654139
-0.00794806
-0.00928092
-0.0105048
-0.0116036
-0.0125731
-0.0134186
-0.0141498
-0.0147773
-0.0153112
-0.0157601
-0.0161301
-0.0164255
-0.0166488
-0.0168008
-0.0168818
-0.0168912
-0.0168288
-0.0166947
-0.0164898
-0.0162156
-0.0158743
-0.015468
-0.0149974
-0.0144594
-0.0138446
-0.0131329
-0.0122926
-0.0112818
-0.0100514
-0.00853841
-0.00677622
-0.00537938
-0.00446392
-0.00166699
-0.00206449
-0.00268134
-0.00353062
-0.00463364
-0.00591359
-0.00726723
-0.0086195
-0.00989475
-0.0110629
-0.0121098
-0.0130333
-0.0138398
-0.0145391
-0.0151417
-0.0156572
-0.0160933
-0.0164557
-0.0167478
-0.0169714
-0.017127
-0.0172141
-0.0172319
-0.0171799
-0.0170579
-0.0168667
-0.0166082
-0.0162849
-0.0159003
-0.0154573
-0.0149565
-0.0143932
-0.0137541
-0.0130144
-0.0121389
-0.0110882
-0.00981226
-0.00833643
-0.00714822
-0.00638716
-0.00250059
-0.0028717
-0.00346833
-0.00429851
-0.00536729
-0.00659597
-0.00789827
-0.00919096
-0.0104077
-0.0115219
-0.0125207
-0.0134033
-0.0141763
-0.0148492
-0.0154319
-0.0159333
-0.0163604
-0.016718
-0.0170087
-0.0172339
-0.0173933
-0.0174863
-0.0175116
-0.0174684
-0.0173564
-0.0171763
-0.0169299
-0.0166207
-0.0162528
-0.015831
-0.015359
-0.0148365
-0.0142561
-0.0136
-0.0128396
-0.0119395
-0.010865
-0.00965631
-0.0086662
-0.00803008
-0.00325498
-0.00359605
-0.00416679
-0.00496878
-0.0059979
-0.00717282
-0.00842068
-0.00965479
-0.0108168
-0.0118819
-0.0128386
-0.0136864
-0.0144317
-0.0150835
-0.0156509
-0.016142
-0.016563
-0.0169177
-0.0172083
-0.0174356
-0.0175988
-0.0176969
-0.0177285
-0.0176923
-0.0175881
-0.0174163
-0.017179
-0.0168799
-0.0165242
-0.016118
-0.0156675
-0.0151761
-0.0146417
-0.0140525
-0.0133855
-0.0126101
-0.0117066
-0.0107245
-0.00990706
-0.00936934
-0.0038899
-0.00420426
-0.00474525
-0.00551719
-0.00650688
-0.00763148
-0.00882644
-0.0100068
-0.0111204
-0.0121434
-0.0130649
-0.0138845
-0.014608
-0.0152437
-0.0158
-0.0162841
-0.0167011
-0.0170545
-0.0173459
-0.0175753
-0.0177418
-0.0178441
-0.0178803
-0.0178493
-0.0177504
-0.0175842
-0.0173528
-0.0170603
-0.0167124
-0.0163165
-0.0158805
-0.0154113
-0.014911
-0.0143735
-0.0137807
-0.013106
-0.0123412
-0.0115318
-0.0108626
-0.0104078
-0.00439019
-0.00467059
-0.00518585
-0.00593028
-0.00688234
-0.00796299
-0.00911111
-0.0102449
-0.0113177
-0.0123063
-0.0132001
-0.0139982
-0.0147058
-0.0153303
-0.0158793
-0.0163591
-0.0167743
-0.0171277
-0.0174202
-0.0176517
-0.0178208
-0.017926
-0.0179653
-0.0179372
-0.0178412
-0.0176777
-0.017449
-0.0171593
-0.016815
-0.0164242
-0.0159964
-0.0155408
-0.0150633
-0.0145627
-0.0140263
-0.0134317
-0.0127764
-0.0121001
-0.011547
-0.0111579
-0.00473924
-0.00499181
-0.00548561
-0.00620502
-0.00712055
-0.0081642
-0.00927299
-0.0103681
-0.0114084
-0.0123708
-0.0132442
-0.0140274
-0.0147247
-0.0153426
-0.0158879
-0.0163663
-0.0167815
-0.0171359
-0.0174301
-0.0176634
-0.0178345
-0.0179412
-0.0179819
-0.0179546
-0.0178588
-0.017695
-0.0174657
-0.0171751
-0.01683
-0.0164393
-0.0160135
-0.0155635
-0.0150983
-0.0146208
-0.0141243
-0.0135912
-0.0130196
-0.0124411
-0.0119758
-0.0116395
-0.00492806
-0.00516559
-0.00564478
-0.00634395
-0.00722548
-0.00823653
-0.009312
-0.0103769
-0.0113927
-0.0123364
-0.0131966
-0.0139712
-0.0146636
-0.0152795
-0.0158248
-0.0163044
-0.0167216
-0.0170783
-0.0173746
-0.0176097
-0.017782
-0.0178892
-0.0179293
-0.0179007
-0.0178025
-0.0176354
-0.0174019
-0.0171065
-0.0167563
-0.0163605
-0.0159306
-0.0154787
-0.015016
-0.0145492
-0.0140772
-0.0135891
-0.0130814
-0.0125744
-0.0121711
-0.0118725
-0.00497713
-0.00520252
-0.00566951
-0.00635246
-0.00720512
-0.00818487
-0.00923263
-0.0102737
-0.0112715
-0.012203
-0.0130563
-0.0138283
-0.0145211
-0.0151395
-0.0156885
-0.0161722
-0.0165936
-0.0169539
-0.0172532
-0.0174902
-0.0176632
-0.0177698
-0.0178078
-0.0177756
-0.0176724
-0.0174989
-0.0172578
-0.0169536
-0.0165937
-0.0161877
-0.0157476
-0.0152864
-0.0148172
-0.0143496
-0.0138881
-0.0134286
-0.0129675
-0.0125113
-0.0121609
-0.0118758
-0.00491112
-0.00512303
-0.00557631
-0.00624433
-0.007071
-0.00801669
-0.00903892
-0.010061
-0.0110455
-0.0119702
-0.0128222
-0.0135969
-0.0142953
-0.0149207
-0.0154773
-0.0159684
-0.0163965
-0.0167623
-0.0170657
-0.0173052
-0.0174787
-0.0175839
-0.0176185
-0.0175807
-0.0174699
-0.0172869
-0.0170343
-0.0167172
-0.016343
-0.0159217
-0.0154654
-0.0149879
-0.0145035
-0.0140246
-0.0135608
-0.0131143
-0.012684
-0.0122626
-0.0119775
-0.0116652
-0.00475656
-0.00495318
-0.00538746
-0.00603449
-0.00683617
-0.00774732
-0.00873664
-0.00974093
-0.0107154
-0.0116372
-0.0124925
-0.013275
-0.013984
-0.0146212
-0.0151896
-0.0156919
-0.0161296
-0.0165034
-0.0168125
-0.0170553
-0.0172298
-0.0173332
-0.0173633
-0.0173183
-0.0171976
-0.017002
-0.0167344
-0.0163999
-0.0160063
-0.0155641
-0.0150857
-0.0145855
-0.0140778
-0.0135777
-0.0130996
-0.0126519
-0.0122385
-0.0118335
-0.0116289
-0.0112561
-0.00454631
-0.00472364
-0.00512912
-0.00574326
-0.0065104
-0.0073857
-0.00833715
-0.00931893
-0.0102828
-0.0112036
-0.0120657
-0.0128605
-0.0135849
-0.0142389
-0.0148239
-0.0153415
-0.0157926
-0.0161772
-0.0164944
-0.0167422
-0.0169184
-0.0170202
-0.0170453
-0.0169917
-0.0168589
-0.016648
-0.0163619
-0.0160058
-0.0155879
-0.0151191
-0.0146123
-0.0140822
-0.0135439
-0.0130137
-0.0125106
-0.0120508
-0.0116432
-0.0112333
-0.0110763
-0.010665
-0.00431756
-0.00446742
-0.00482791
-0.00539184
-0.0061092
-0.0069387
-0.00784764
-0.00879943
-0.00974925
-0.0106691
-0.0115403
-0.0123513
-0.013096
-0.0137721
-0.0143788
-0.0149166
-0.0153854
-0.0157845
-0.0161127
-0.0163678
-0.0165472
-0.0166482
-0.0166681
-0.0166051
-0.0164587
-0.01623
-0.015922
-0.0155404
-0.0150936
-0.0145927
-0.0140511
-0.0134839
-0.0129072
-0.0123383
-0.0118007
-0.0113206
-0.0109127
-0.0104703
-0.0103402
-0.00990361
-0.00410514
-0.00421278
-0.00450637
-0.0049993
-0.00564923
-0.00641713
-0.00727377
-0.00818678
-0.00911665
-0.0100336
-0.0109151
-0.0117457
-0.0125156
-0.0132191
-0.0138533
-0.0144168
-0.0149083
-0.0153265
-0.0156695
-0.0159348
-0.0161196
-0.016221
-0.0162364
-0.0161638
-0.0160027
-0.0157543
-0.0154218
-0.015011
-0.0145307
-0.0139925
-0.0134099
-0.0127986
-0.0121754
-0.0115594
-0.0109782
-0.0104686
-0.0100478
-0.00954917
-0.00947134
-0.00896449
-0.00392905
-0.00397612
-0.00417981
-0.00458174
-0.00514529
-0.005833
-0.00662185
-0.00748517
-0.00838773
-0.00929815
-0.0101902
-0.0110432
-0.0118428
-0.0125795
-0.0132473
-0.0138427
-0.0143627
-0.0148051
-0.0151674
-0.0154466
-0.0156397
-0.0157438
-0.015756
-0.0156744
-0.0154984
-0.0152291
-0.01487
-0.0144271
-0.0139095
-0.013329
-0.0126995
-0.012037
-0.0113596
-0.0106879
-0.0100537
-0.00950215
-0.00905012
-0.00849219
-0.00845745
-0.00782116
-0.0037864
-0.00374932
-0.00385544
-0.00415241
-0.00460957
-0.00519646
-0.00589957
-0.00670015
-0.00756663
-0.00846587
-0.00936728
-0.0102449
-0.0110787
-0.0118544
-0.0125625
-0.0131962
-0.0137512
-0.0142237
-0.0146105
-0.0149081
-0.0151133
-0.0152228
-0.0152341
-0.015145
-0.0149547
-0.0146645
-0.0142779
-0.013801
-0.0132432
-0.0126164
-0.0119346
-0.0112142
-0.0104747
-0.00973832
-0.00904134
-0.00843436
-0.00793262
-0.00728413
-0.00730587
-0.00641834
-0.00362758
-0.00351502
-0.00354087
-0.00372202
-0.00405061
-0.00451503
-0.00511437
-0.00583849
-0.00665948
-0.00754233
-0.0084516
-0.00935537
-0.0102274
-0.011048
-0.0118028
-0.012482
-0.0130788
-0.0135877
-0.0140047
-0.0143259
-0.0145476
-0.0146666
-0.0146801
-0.014586
-0.0143833
-0.0140735
-0.01366
-0.0131489
-0.0125494
-0.0118734
-0.011135
-0.0103503
-0.00954085
-0.00873041
-0.00796017
-0.00728159
-0.00670278
-0.00592029
-0.0060201
-0.00468005
-0.00341761
-0.0032847
-0.00324595
-0.00329776
-0.00347515
-0.00379582
-0.00427462
-0.00490961
-0.00567637
-0.00653782
-0.00745335
-0.00838447
-0.00929827
-0.0101688
-0.0109767
-0.0117082
-0.0123535
-0.0129056
-0.013359
-0.0137094
-0.0139527
-0.0140857
-0.0141056
-0.0140103
-0.0137989
-0.0134727
-0.0130349
-0.0124915
-0.0118511
-0.0111252
-0.0103272
-0.00947327
-0.0085862
-0.00769135
-0.00683393
-0.00606183
-0.0053731
-0.00442459
-0.00456816
-0.00256177
-0.00318896
-0.00308186
-0.00297611
-0.00288253
-0.00288817
-0.00304584
-0.00338948
-0.00392561
-0.00463238
-0.00546943
-0.00639037
-0.00734997
-0.00830832
-0.00923298
-0.0100992
-0.0108888
-0.0115889
-0.0121903
-0.0126862
-0.0130716
-0.0133423
-0.0134948
-0.0135263
-0.013435
-0.0132206
-0.0128834
-0.0124267
-0.0118557
-0.0111783
-0.0104043
-0.0095466
-0.00861987
-0.0076477
-0.00665635
-0.00569429
-0.004797
-0.00395798
-0.00282843
-0.00284473
-8.74734e-05
-0.00298564
-0.00290999
-0.00272549
-0.0024761
-0.00229458
-0.00227439
-0.00247274
-0.00290499
-0.00354974
-0.00436252
-0.00528988
-0.00627941
-0.00728443
-0.00826613
-0.00919421
-0.0100461
-0.0108057
-0.0114614
-0.0120052
-0.0124312
-0.0127351
-0.0129132
-0.012963
-0.0128829
-0.0126727
-0.0123329
-0.0118658
-0.0112755
-0.0105682
-0.00975147
-0.0088361
-0.00783429
-0.00676893
-0.00566355
-0.00456642
-0.0034939
-0.00244111
-0.00106866
-0.000720503
0.00274349
-0.00279153
-0.00274125
-0.00247506
-0.00206671
-0.0016909
-0.00148814
-0.00154059
-0.0018717
-0.00245856
-0.00325079
-0.00418769
-0.00520956
-0.00626281
-0.00730272
-0.00829398
-0.00920998
-0.0100315
-0.0107449
-0.0113407
-0.0118124
-0.0121552
-0.0123659
-0.0124415
-0.012381
-0.0121844
-0.0118521
-0.0113852
-0.0107859
-0.0100584
-0.00920626
-0.00823673
-0.00715613
-0.00598351
-0.00473168
-0.00344101
-0.00209822
-0.000704312
0.00108168
0.00203627
0.00634014
-0.00259267
-0.00254478
-0.00220893
-0.00164246
-0.00107903
-0.000707025
-0.000627013
-0.00086827
-0.00140588
-0.00218294
-0.00313172
-0.00418596
-0.0052863
-0.00638274
-0.00743559
-0.00841479
-0.00929839
-0.0100708
-0.0107213
-0.0112425
-0.0116293
-0.0118783
-0.0119872
-0.0119548
-0.0117808
-0.0114647
-0.0110069
-0.010407
-0.00966724
-0.00878555
-0.00776418
-0.00659687
-0.00529287
-0.00383925
-0.0022533
-0.000464827
0.00152746
0.00410442
0.00619766
0.0121333
-0.00238185
-0.0023276
-0.001899
-0.00119179
-0.000457404
5.37089e-05
0.000240502
7.15691e-05
-0.000426554
-0.00119249
-0.0021532
-0.00323739
-0.00438146
-0.00553139
-0.00664374
-0.00768512
-0.0086309
-0.00946343
-0.0101705
-0.010744
-0.0111783
-0.0114696
-0.0116161
-0.0116161
-0.0114689
-0.011173
-0.0107286
-0.010132
-0.00938237
-0.0084717
-0.00739742
-0.00613151
-0.00466349
-0.00292909
-0.000901034
0.00161164
0.00465114
0.00880477
0.0133725
0.0230382
-0.0023529
-0.00221588
-0.00162032
-0.000758001
0.000105894
0.000726666
0.000985149
0.000860489
0.000382648
-0.000383486
-0.00136042
-0.00247338
-0.00365569
-0.00485112
-0.00601382
-0.00710793
-0.00810677
-0.00899099
-0.00974701
-0.0103655
-0.0108408
-0.0111688
-0.0113476
-0.0113747
-0.0112497
-0.0109702
-0.0105359
-0.0099406
-0.00918155
-0.00823948
-0.00710159
-0.00572538
-0.00407005
-0.00198743
0.000625261
0.00418474
0.00887405
0.0159881
0.0255217
0.0422168
-0.00323271
-0.00246248
-0.00148503
-0.000390015
0.000612189
0.00130806
0.00161611
0.00151695
0.00104613
0.000272786
-0.000722409
-0.00186271
-0.00307968
-0.00431495
-0.00552013
-0.00665744
-0.00769831
-0.00862239
-0.00941507
-0.0100666
-0.0105707
-0.0109238
-0.0111233
-0.0111675
-0.0110552
-0.0107839
-0.0103516
-0.00975142
-0.00897617
-0.00800815
-0.00682196
-0.00536965
-0.00353825
-0.00118216
0.00202486
0.00678386
0.0138013
0.0256908
0.0432171
0.0700183
-0.00531251
-0.00161499
-0.000176923
0.000846463
0.00174179
0.002376
0.00262441
0.0024606
0.00192529
0.00109113
3.82388e-05
-0.00115641
-0.00242568
-0.0037112
-0.00496417
-0.00614516
-0.00722535
-0.0081834
-0.00900558
-0.00968178
-0.0102065
-0.0105757
-0.010788
-0.0108414
-0.0107353
-0.0104672
-0.0100342
-0.00942816
-0.00863847
-0.00764369
-0.00640086
-0.00489013
-0.00295704
-0.000633998
0.00312612
0.00867653
0.0189499
0.0364467
0.0637029
0.0990007
)
;

boundaryField
{
    movingWall
    {
        type            zeroGradient;
    }
    fixedWalls
    {
        type            zeroGradient;
    }
    frontAndBack
    {
        type            empty;
    }
}


// ************************************************************************* //
