/*--------------------------------*- C++ -*----------------------------------*\
  =========                 |
  \\      /  F ield         | OpenFOAM: The Open Source CFD Toolbox
   \\    /   O peration     | Website:  https://openfoam.org
    \\  /    A nd           | Version:  12
     \\/     M anipulation  |
\*---------------------------------------------------------------------------*/
FoamFile
{
    format      ascii;
    class       surfaceScalarField;
    location    "4";
    object      phi;
}
// * * * * * * * * * * * * * * * * * * * * * * * * * * * * * * * * * * * * * //

dimensions      [0 3 -1 0 0 0 0];

internalField   nonuniform List<scalar> 
3120
(
6.8669e-08
-6.86697e-08
1.74623e-07
-1.05954e-07
2.60771e-07
-8.61483e-08
3.02283e-07
-4.15118e-08
3.09284e-07
-7.00069e-09
3.01513e-07
7.77024e-09
2.92585e-07
8.92864e-09
2.83259e-07
9.32536e-09
2.60946e-07
2.23131e-08
2.15717e-07
4.52291e-08
1.39599e-07
7.61179e-08
-5.9363e-09
1.45535e-07
-2.39112e-07
2.33175e-07
-5.895e-07
3.50388e-07
-1.04619e-06
4.56691e-07
-1.53835e-06
4.92154e-07
-2.0056e-06
4.67252e-07
-2.42231e-06
4.16717e-07
-2.77741e-06
3.55098e-07
-3.06958e-06
2.9217e-07
-3.29835e-06
2.28767e-07
-3.46419e-06
1.65839e-07
-3.56586e-06
1.01672e-07
-3.60274e-06
3.6881e-08
-3.56741e-06
-3.53259e-08
-3.46249e-06
-1.04927e-07
-3.27837e-06
-1.84114e-07
-3.0107e-06
-2.67672e-07
-2.65555e-06
-3.55148e-07
-2.21027e-06
-4.45289e-07
-1.67854e-06
-5.31724e-07
-1.08239e-06
-5.96147e-07
-4.69374e-07
-6.1302e-07
9.10424e-08
-5.60417e-07
5.23051e-07
-4.32008e-07
6.86025e-07
-1.62974e-07
5.73976e-07
1.12048e-07
3.64276e-07
2.097e-07
1.49107e-07
2.15169e-07
1.49107e-07
1.2285e-07
-1.9152e-07
2.67537e-07
-2.50641e-07
3.63579e-07
-1.8219e-07
3.99296e-07
-7.72288e-08
3.8673e-07
5.56536e-09
3.34178e-07
6.03219e-08
2.52316e-07
9.07906e-08
1.29148e-07
1.32494e-07
-6.38452e-08
2.15306e-07
-3.64323e-07
3.45707e-07
-8.01404e-07
5.13199e-07
-1.35343e-06
6.97564e-07
-1.96354e-06
8.43282e-07
-2.54067e-06
9.27524e-07
-3.01744e-06
9.33457e-07
-3.41116e-06
8.8587e-07
-3.7498e-06
8.05895e-07
-4.03597e-06
7.02883e-07
-4.2706e-06
5.89729e-07
-4.45287e-06
4.7444e-07
-4.58373e-06
3.59633e-07
-4.66271e-06
2.44814e-07
-4.69215e-06
1.31114e-07
-4.66345e-06
8.17922e-09
-4.58696e-06
-1.11811e-07
-4.44839e-06
-2.43498e-07
-4.24579e-06
-3.86712e-07
-3.97076e-06
-5.42707e-07
-3.61438e-06
-7.11529e-07
-3.17496e-06
-8.84703e-07
-2.65426e-06
-1.05243e-06
-2.05955e-06
-1.19086e-06
-1.41559e-06
-1.25698e-06
-7.61259e-07
-1.21475e-06
-1.92541e-07
-1.00073e-06
2.20084e-07
-5.75599e-07
3.47295e-07
-1.51629e-08
2.82364e-07
2.74631e-07
1.29094e-07
3.68439e-07
2.78201e-07
1.47407e-07
-3.38927e-07
2.57253e-07
-3.60488e-07
2.99242e-07
-2.24179e-07
2.80217e-07
-5.82039e-08
2.05196e-07
8.05866e-08
7.22537e-08
1.93264e-07
-1.46554e-07
3.09598e-07
-4.78653e-07
4.64593e-07
-9.34634e-07
6.71287e-07
-1.4941e-06
9.05172e-07
-2.0953e-06
1.1144e-06
-2.65361e-06
1.25588e-06
-3.13802e-06
1.32769e-06
-3.53741e-06
1.32691e-06
-3.86509e-06
1.26114e-06
-4.13396e-06
1.15473e-06
-4.35337e-06
1.02531e-06
-4.5326e-06
8.82114e-07
-4.67484e-06
7.31966e-07
-4.78383e-06
5.83429e-07
-4.85916e-06
4.3497e-07
-4.90196e-06
2.87613e-07
-4.90771e-06
1.36864e-07
-4.87793e-06
-2.16007e-08
-4.80959e-06
-1.80157e-07
-4.70133e-06
-3.51752e-07
-4.54901e-06
-5.39034e-07
-4.34754e-06
-7.44173e-07
-4.08949e-06
-9.69583e-07
-3.7628e-06
-1.2114e-06
-3.35697e-06
-1.45826e-06
-2.86468e-06
-1.68314e-06
-2.28985e-06
-1.83181e-06
-1.65893e-06
-1.84566e-06
-1.0051e-06
-1.65455e-06
-4.14358e-07
-1.16634e-06
-4.67937e-08
-3.82727e-07
4.65124e-08
1.81325e-07
3.0867e-08
3.84085e-07
3.09068e-07
1.2083e-07
-4.59756e-07
1.60572e-07
-4.0023e-07
1.21375e-07
-1.84982e-07
1.95568e-08
4.36141e-08
-1.53631e-07
2.53775e-07
-4.19761e-07
4.59394e-07
-7.97921e-07
6.87758e-07
-1.28461e-06
9.51284e-07
-1.84237e-06
1.22905e-06
-2.4092e-06
1.47199e-06
-2.92036e-06
1.62556e-06
-3.34604e-06
1.68156e-06
-3.68393e-06
1.66558e-06
-3.94818e-06
1.59116e-06
-4.1603e-06
1.47326e-06
-4.33211e-06
1.32654e-06
-4.47051e-06
1.16371e-06
-4.58443e-06
9.96041e-07
-4.67952e-06
8.27054e-07
-4.7534e-06
6.57304e-07
-4.80317e-06
4.84739e-07
-4.82891e-06
3.13356e-07
-4.82894e-06
1.36892e-07
-4.80498e-06
-4.55532e-08
-4.75447e-06
-2.30675e-07
-4.67512e-06
-4.311e-07
-4.56448e-06
-6.49676e-07
-4.41955e-06
-8.89094e-07
-4.23785e-06
-1.15129e-06
-4.01534e-06
-1.43391e-06
-3.74551e-06
-1.72808e-06
-3.41021e-06
-2.01844e-06
-2.97136e-06
-2.27067e-06
-2.41955e-06
-2.39748e-06
-1.7671e-06
-2.307e-06
-1.04548e-06
-1.88797e-06
-3.89274e-07
-1.03893e-06
-1.0302e-07
-1.0493e-07
-1.59183e-08
2.96983e-07
2.9315e-07
5.32436e-08
-5.13e-07
-1.02875e-09
-3.45958e-07
-1.28088e-07
-5.79231e-08
-3.22389e-07
2.37915e-07
-6.01375e-07
5.32761e-07
-9.79345e-07
8.37364e-07
-1.45061e-06
1.15902e-06
-1.97991e-06
1.48058e-06
-2.50758e-06
1.75672e-06
-2.96826e-06
1.93267e-06
-3.33801e-06
1.99531e-06
-3.6304e-06
1.97396e-06
-3.85707e-06
1.89225e-06
-4.03224e-06
1.76633e-06
-4.17043e-06
1.61144e-06
-4.28314e-06
1.43926e-06
-4.37619e-06
1.25675e-06
-4.44707e-06
1.06693e-06
-4.49684e-06
8.76817e-07
-4.52625e-06
6.86718e-07
-4.54077e-06
4.99255e-07
-4.54074e-06
3.13327e-07
-4.5286e-06
1.24755e-07
-4.50526e-06
-6.8894e-08
-4.46633e-06
-2.69604e-07
-4.41212e-06
-4.85312e-07
-4.34174e-06
-7.20059e-07
-4.25279e-06
-9.78045e-07
-4.14164e-06
-1.26243e-06
-4.00242e-06
-1.57313e-06
-3.82688e-06
-1.90363e-06
-3.60679e-06
-2.23853e-06
-3.32544e-06
-2.55201e-06
-2.93388e-06
-2.78904e-06
-2.388e-06
-2.85289e-06
-1.67513e-06
-2.60084e-06
-8.15872e-07
-1.89819e-06
-1.88416e-07
-7.32385e-07
-8.74824e-09
1.17315e-07
2.84402e-07
-4.62045e-08
-4.66795e-07
-1.9171e-07
-2.00452e-07
-4.02766e-07
1.53133e-07
-6.83496e-07
5.18646e-07
-1.04634e-06
8.95606e-07
-1.48639e-06
1.27742e-06
-1.97517e-06
1.6478e-06
-2.46193e-06
1.96734e-06
-2.88641e-06
2.1812e-06
-3.21946e-06
2.26572e-06
-3.4755e-06
2.25135e-06
-3.67216e-06
2.17062e-06
-3.82069e-06
2.04078e-06
-3.93199e-06
1.87763e-06
-4.01363e-06
1.69308e-06
-4.06989e-06
1.49552e-06
-4.10522e-06
1.29209e-06
-4.12522e-06
1.08693e-06
-4.13402e-06
8.85617e-07
-4.13487e-06
6.87567e-07
-4.1284e-06
4.92786e-07
-4.11438e-06
2.99307e-07
-4.09393e-06
1.04302e-07
-4.06764e-06
-9.518e-08
-4.03422e-06
-3.03024e-07
-3.99498e-06
-5.2455e-07
-3.95041e-06
-7.64634e-07
-3.90018e-06
-1.02827e-06
-3.84292e-06
-1.31969e-06
-3.77494e-06
-1.64111e-06
-3.68817e-06
-1.99039e-06
-3.56876e-06
-2.35794e-06
-3.40024e-06
-2.72054e-06
-3.154e-06
-3.03527e-06
-2.7744e-06
-3.23248e-06
-2.18859e-06
-3.18665e-06
-1.35131e-06
-2.73546e-06
-4.23625e-07
-1.66007e-06
-2.19412e-08
-2.84368e-07
2.6246e-07
-1.44602e-07
-3.22193e-07
-3.78216e-07
3.31621e-08
-6.60231e-07
4.35148e-07
-1.00642e-06
8.64838e-07
-1.41506e-06
1.30425e-06
-1.86456e-06
1.72691e-06
-2.31519e-06
2.09843e-06
-2.71314e-06
2.36529e-06
-3.02286e-06
2.49092e-06
-3.2533e-06
2.49616e-06
-3.42485e-06
2.4229e-06
-3.54841e-06
2.29418e-06
-3.63334e-06
2.12571e-06
-3.68783e-06
1.93212e-06
-3.71848e-06
1.72373e-06
-3.73145e-06
1.50849e-06
-3.73191e-06
1.29255e-06
-3.72462e-06
1.07964e-06
-3.71129e-06
8.72286e-07
-3.69346e-06
6.69742e-07
-3.67189e-06
4.71215e-07
-3.64712e-06
2.74539e-07
-3.61987e-06
7.70545e-08
-3.59067e-06
-1.24382e-07
-3.55998e-06
-3.33712e-07
-3.529e-06
-5.55535e-07
-3.49887e-06
-7.94759e-07
-3.47052e-06
-1.05662e-06
-3.44411e-06
-1.34611e-06
-3.4181e-06
-1.66712e-06
-3.38768e-06
-2.02081e-06
-3.34305e-06
-2.40257e-06
-3.26637e-06
-2.79723e-06
-3.12853e-06
-3.17311e-06
-2.88836e-06
-3.47265e-06
-2.4758e-06
-3.59921e-06
-1.81634e-06
-3.39492e-06
-8.34127e-07
-2.64228e-06
-9.63331e-08
-1.02216e-06
1.66127e-07
-2.30311e-07
-9.18819e-08
-5.27633e-07
3.30484e-07
-8.66738e-07
7.74253e-07
-1.25081e-06
1.24891e-06
-1.66762e-06
1.72106e-06
-2.08908e-06
2.14837e-06
-2.47e-06
2.47935e-06
-2.77041e-06
2.6657e-06
-2.9874e-06
2.70791e-06
-3.14292e-06
2.65168e-06
-3.25056e-06
2.53053e-06
-3.31845e-06
2.36208e-06
-3.3554e-06
2.16266e-06
-3.36913e-06
1.94585e-06
-3.36623e-06
1.72084e-06
-3.35243e-06
1.49468e-06
-3.33196e-06
1.27207e-06
-3.30777e-06
1.05545e-06
-3.28105e-06
8.45573e-07
-3.25277e-06
6.41454e-07
-3.22337e-06
4.41821e-07
-3.19328e-06
2.44448e-07
-3.16303e-06
4.67978e-08
-3.13301e-06
-1.544e-07
-3.10412e-06
-3.62597e-07
-3.0777e-06
-5.81954e-07
-3.05537e-06
-8.17093e-07
-3.03882e-06
-1.07317e-06
-3.0293e-06
-1.35564e-06
-3.02668e-06
-1.66974e-06
-3.02824e-06
-2.01925e-06
-3.02677e-06
-2.40405e-06
-3.00763e-06
-2.81637e-06
-2.94574e-06
-3.23499e-06
-2.80314e-06
-3.61526e-06
-2.52721e-06
-3.87514e-06
-2.04859e-06
-3.87354e-06
-1.26571e-06
-3.42517e-06
-2.80401e-07
-2.00747e-06
-1.14274e-07
-2.8702e-07
1.95138e-07
-6.34522e-07
6.77985e-07
-1.0061e-06
1.14584e-06
-1.39957e-06
1.64237e-06
-1.79771e-06
2.1192e-06
-2.16821e-06
2.51888e-06
-2.47139e-06
2.78253e-06
-2.68939e-06
2.8837e-06
-2.83948e-06
2.858e-06
-2.94022e-06
2.75243e-06
-3.0004e-06
2.59071e-06
-3.02832e-06
2.39e-06
-3.03268e-06
2.16702e-06
-3.02062e-06
1.93379e-06
-2.99814e-06
1.69836e-06
-2.96986e-06
1.4664e-06
-2.93878e-06
1.241e-06
-2.90674e-06
1.0234e-06
-2.87455e-06
8.13383e-07
-2.84272e-06
6.09627e-07
-2.81137e-06
4.10469e-07
-2.78049e-06
2.13569e-07
-2.7503e-06
1.66104e-08
-2.72083e-06
-1.83868e-07
-2.69297e-06
-3.90456e-07
-2.66806e-06
-6.06866e-07
-2.64797e-06
-8.37188e-07
-2.63495e-06
-1.08619e-06
-2.6312e-06
-1.35939e-06
-2.63805e-06
-1.66288e-06
-2.65478e-06
-2.00252e-06
-2.67668e-06
-2.38214e-06
-2.6926e-06
-2.80045e-06
-2.68131e-06
-3.24629e-06
-2.60794e-06
-3.68863e-06
-2.42492e-06
-4.05816e-06
-2.09392e-06
-4.20454e-06
-1.53406e-06
-3.98503e-06
-5.42759e-07
-2.99877e-06
-6.57033e-07
-3.22098e-07
5.17237e-07
-6.93965e-07
1.04985e-06
-1.0736e-06
1.52547e-06
-1.45377e-06
2.02253e-06
-1.8166e-06
2.48203e-06
-2.13045e-06
2.83273e-06
-2.36228e-06
3.01436e-06
-2.51885e-06
3.04027e-06
-2.62175e-06
2.9609e-06
-2.68268e-06
2.81336e-06
-2.70961e-06
2.61764e-06
-2.71149e-06
2.39187e-06
-2.69638e-06
2.15191e-06
-2.67054e-06
1.90795e-06
-2.63893e-06
1.66675e-06
-2.60499e-06
1.43246e-06
-2.57092e-06
1.20693e-06
-2.53789e-06
9.90375e-07
-2.50637e-06
7.81856e-07
-2.47634e-06
5.79598e-07
-2.44744e-06
3.81568e-07
-2.41919e-06
1.85319e-07
-2.39131e-06
-1.12656e-08
-2.3636e-06
-2.11573e-07
-2.3367e-06
-4.1736e-07
-2.31174e-06
-6.31829e-07
-2.29059e-06
-8.58332e-07
-2.27578e-06
-1.101e-06
-2.27011e-06
-1.36506e-06
-2.27602e-06
-1.65697e-06
-2.29441e-06
-1.98413e-06
-2.32296e-06
-2.35359e-06
-2.35392e-06
-2.76949e-06
-2.3713e-06
-3.22891e-06
-2.34573e-06
-3.71419e-06
-2.23088e-06
-4.17301e-06
-1.98549e-06
-4.44994e-06
-1.55489e-06
-4.41562e-06
-8.01575e-07
-3.75209e-06
-1.45861e-06
-3.33148e-07
8.50385e-07
-7.07607e-07
1.42431e-06
-1.077e-06
1.89486e-06
-1.43124e-06
2.37678e-06
-1.75308e-06
2.80388e-06
-2.00674e-06
3.08639e-06
-2.18033e-06
3.18794e-06
-2.29498e-06
3.15492e-06
-2.36427e-06
3.03019e-06
-2.39758e-06
2.84667e-06
-2.40336e-06
2.62342e-06
-2.39044e-06
2.37895e-06
-2.36579e-06
2.12725e-06
-2.33467e-06
1.87683e-06
-2.3011e-06
1.63318e-06
-2.26777e-06
1.39912e-06
-2.23622e-06
1.17538e-06
-2.20711e-06
9.61261e-07
-2.18037e-06
7.55114e-07
-2.15547e-06
5.54707e-07
-2.13161e-06
3.57706e-07
-2.10801e-06
1.61711e-07
-2.08372e-06
-3.55523e-08
-2.05882e-06
-2.36471e-07
-2.0333e-06
-4.42884e-07
-2.00806e-06
-6.57068e-07
-1.98479e-06
-8.81597e-07
-1.96599e-06
-1.1198e-06
-1.95476e-06
-1.37629e-06
-1.9543e-06
-1.65743e-06
-1.96686e-06
-1.97158e-06
-1.99204e-06
-2.32841e-06
-2.02481e-06
-2.73672e-06
-2.05347e-06
-3.20024e-06
-2.0554e-06
-3.71227e-06
-1.98805e-06
-4.24036e-06
-1.78754e-06
-4.65044e-06
-1.44376e-06
-4.7594e-06
-8.80489e-07
-4.31536e-06
-2.3391e-06
-3.24241e-07
1.17463e-06
-6.8447e-07
1.78454e-06
-1.03062e-06
2.24101e-06
-1.35069e-06
2.69684e-06
-1.62599e-06
3.07918e-06
-1.82376e-06
3.28416e-06
-1.95822e-06
3.3224e-06
-2.04283e-06
3.23953e-06
-2.08851e-06
3.07588e-06
-2.10407e-06
2.86223e-06
-2.09808e-06
2.61743e-06
-2.07846e-06
2.35933e-06
-2.05107e-06
2.09987e-06
-2.02045e-06
1.84621e-06
-1.98982e-06
1.60256e-06
-1.96121e-06
1.37051e-06
-1.93555e-06
1.14973e-06
-1.91296e-06
9.38672e-07
-1.89291e-06
7.35066e-07
-1.87451e-06
5.36301e-07
-1.85664e-06
3.39837e-07
-1.83826e-06
1.43335e-07
-1.81845e-06
-5.53628e-08
-1.7968e-06
-2.58119e-07
-1.77322e-06
-4.66472e-07
-1.74825e-06
-6.82035e-07
-1.72323e-06
-9.06621e-07
-1.70033e-06
-1.1427e-06
-1.6826e-06
-1.39402e-06
-1.67362e-06
-1.66641e-06
-1.67669e-06
-1.9685e-06
-1.69328e-06
-2.31182e-06
-1.72072e-06
-2.70927e-06
-1.75015e-06
-3.17081e-06
-1.76451e-06
-3.69791e-06
-1.73219e-06
-4.27268e-06
-1.57571e-06
-4.80693e-06
-1.29519e-06
-5.03992e-06
-7.95096e-07
-4.81545e-06
-3.13419e-06
-2.99252e-07
1.47388e-06
-6.32733e-07
2.11802e-06
-9.46861e-07
2.55514e-06
-1.22868e-06
2.97866e-06
-1.45528e-06
3.30578e-06
-1.61193e-06
3.44081e-06
-1.71744e-06
3.42791e-06
-1.77953e-06
3.30162e-06
-1.80921e-06
3.10556e-06
-1.81441e-06
2.86742e-06
-1.80319e-06
2.60621e-06
-1.78228e-06
2.33842e-06
-1.75668e-06
2.07427e-06
-1.7302e-06
1.81973e-06
-1.70535e-06
1.57771e-06
-1.6835e-06
1.34866e-06
-1.66506e-06
1.13129e-06
-1.6497e-06
9.23309e-07
-1.63656e-06
7.21931e-07
-1.62455e-06
5.24287e-07
-1.61246e-06
3.27746e-07
-1.59917e-06
1.30045e-07
-1.58376e-06
-7.07689e-08
-1.56564e-06
-2.76239e-07
-1.54456e-06
-4.87548e-07
-1.52081e-06
-7.05786e-07
-1.49531e-06
-9.32121e-07
-1.46979e-06
-1.16823e-06
-1.44688e-06
-1.41693e-06
-1.43011e-06
-1.68317e-06
-1.42337e-06
-1.97524e-06
-1.42955e-06
-2.30564e-06
-1.44829e-06
-2.69054e-06
-1.4732e-06
-3.1459e-06
-1.49062e-06
-3.6805e-06
-1.47565e-06
-4.28765e-06
-1.36614e-06
-4.91643e-06
-1.11804e-06
-5.28803e-06
-6.96933e-07
-5.23656e-06
-3.83113e-06
-2.63351e-07
1.73723e-06
-5.61672e-07
2.41634e-06
-8.38714e-07
2.83218e-06
-1.08051e-06
3.22046e-06
-1.26151e-06
3.48677e-06
-1.38761e-06
3.56691e-06
-1.46972e-06
3.51002e-06
-1.51602e-06
3.34792e-06
-1.53549e-06
3.12504e-06
-1.53555e-06
2.86748e-06
-1.52336e-06
2.59402e-06
-1.50456e-06
2.31961e-06
-1.48337e-06
2.05309e-06
-1.46284e-06
1.7992e-06
-1.44483e-06
1.5597e-06
-1.43016e-06
1.33398e-06
-1.41878e-06
1.11991e-06
-1.41007e-06
9.14601e-07
-1.40304e-06
7.14898e-07
-1.39654e-06
5.17786e-07
-1.38941e-06
3.2062e-07
-1.38059e-06
1.21226e-07
-1.36921e-06
-8.21512e-08
-1.35463e-06
-2.90817e-07
-1.33652e-06
-5.05659e-07
-1.31494e-06
-7.27369e-07
-1.29045e-06
-9.56605e-07
-1.26431e-06
-1.19437e-06
-1.23861e-06
-1.44263e-06
-1.21646e-06
-1.70533e-06
-1.20183e-06
-1.98987e-06
-1.19867e-06
-2.30881e-06
-1.20867e-06
-2.68053e-06
-1.22809e-06
-3.12649e-06
-1.24569e-06
-3.6629e-06
-1.24027e-06
-4.29307e-06
-1.17173e-06
-4.98496e-06
-9.51988e-07
-5.50777e-06
-5.93572e-07
-5.59497e-06
-4.4247e-06
-2.21419e-07
1.95865e-06
-4.7926e-07
2.67418e-06
-7.16634e-07
3.06956e-06
-9.16907e-07
3.42073e-06
-1.05907e-06
3.62893e-06
-1.16031e-06
3.66816e-06
-1.22426e-06
3.57396e-06
-1.25914e-06
3.3828e-06
-1.27243e-06
3.13833e-06
-1.27071e-06
2.86575e-06
-1.26008e-06
2.5834e-06
-1.2452e-06
2.30474e-06
-1.22952e-06
2.0374e-06
-1.21537e-06
1.78505e-06
-1.20403e-06
1.54835e-06
-1.19584e-06
1.32579e-06
-1.1905e-06
1.11457e-06
-1.18724e-06
9.11336e-07
-1.18506e-06
7.12717e-07
-1.1829e-06
5.15635e-07
-1.17976e-06
3.17473e-07
-1.17467e-06
1.16143e-07
-1.16687e-06
-8.99522e-08
-1.15576e-06
-3.01931e-07
-1.14095e-06
-5.20467e-07
-1.12236e-06
-7.45961e-07
-1.10028e-06
-9.78687e-07
-1.07552e-06
-1.21912e-06
-1.04965e-06
-1.46851e-06
-1.02517e-06
-1.7298e-06
-1.00575e-06
-2.00929e-06
-9.95734e-07
-2.31882e-06
-9.98454e-07
-2.67781e-06
-1.01272e-06
-3.11222e-06
-1.02926e-06
-3.64636e-06
-1.02999e-06
-4.29234e-06
-9.85025e-07
-5.02993e-06
-8.08004e-07
-5.68479e-06
-5.0907e-07
-5.89391e-06
-4.93377e-06
-1.75166e-07
2.13381e-06
-3.90085e-07
2.8891e-06
-5.86402e-07
3.26588e-06
-7.46249e-07
3.58058e-06
-8.57433e-07
3.74012e-06
-9.37187e-07
3.74791e-06
-9.86328e-07
3.62311e-06
-1.01266e-06
3.40914e-06
-1.02227e-06
3.14793e-06
-1.02067e-06
2.86415e-06
-1.01284e-06
2.57557e-06
-1.00251e-06
2.2944e-06
-9.92348e-07
2.02725e-06
-9.84068e-07
1.77677e-06
-9.78442e-07
1.54273e-06
-9.75511e-07
1.32286e-06
-9.74812e-07
1.11387e-06
-9.75586e-07
9.12109e-07
-9.76948e-07
7.1408e-07
-9.78006e-07
5.16692e-07
-9.77909e-07
3.17377e-07
-9.75888e-07
1.14122e-07
-9.71277e-07
-9.45633e-08
-9.63548e-07
-3.0966e-07
-9.52318e-07
-5.31697e-07
-9.37403e-07
-7.60876e-07
-9.18891e-07
-9.97199e-07
-8.97271e-07
-1.24074e-06
-8.73623e-07
-1.49215e-06
-8.49893e-07
-1.75353e-06
-8.29204e-07
-2.02998e-06
-8.15862e-07
-2.33216e-06
-8.14272e-07
-2.6794e-06
-8.25686e-07
-3.1008e-06
-8.43406e-07
-3.62864e-06
-8.52321e-07
-4.28342e-06
-8.27728e-07
-5.05453e-06
-6.87631e-07
-5.82489e-06
-4.28276e-07
-6.15326e-06
-5.36204e-06
-1.28272e-07
2.26209e-06
-2.97793e-07
3.05862e-06
-4.53944e-07
3.42203e-06
-5.76396e-07
3.70303e-06
-6.61397e-07
3.82512e-06
-7.21557e-07
3.80807e-06
-7.58299e-07
3.65985e-06
-7.77981e-07
3.42882e-06
-7.85317e-07
3.15527e-06
-7.84693e-07
2.86353e-06
-7.79964e-07
2.57084e-06
-7.73965e-07
2.2884e-06
-7.6867e-07
2.02195e-06
-7.65218e-07
1.77332e-06
-7.64015e-07
1.54152e-06
-7.64917e-07
1.32377e-06
-7.67439e-07
1.11639e-06
-7.70919e-07
9.15589e-07
-7.74645e-07
7.17807e-07
-7.77922e-07
5.19968e-07
-7.80099e-07
3.19554e-07
-7.80586e-07
1.14609e-07
-7.78859e-07
-9.62906e-08
-7.7447e-07
-3.14049e-07
-7.67061e-07
-5.39106e-07
-7.56393e-07
-7.71544e-07
-7.42413e-07
-1.01118e-06
-7.25358e-07
-1.2578e-06
-7.05931e-07
-1.51158e-06
-6.85574e-07
-1.77389e-06
-6.66843e-07
-2.04871e-06
-6.53703e-07
-2.3453e-06
-6.51042e-07
-2.68206e-06
-6.61965e-07
-3.08988e-06
-6.8252e-07
-3.60808e-06
-6.99234e-07
-4.26671e-06
-6.87289e-07
-5.06647e-06
-5.90232e-07
-5.92195e-06
-3.73566e-07
-6.36993e-06
-5.73561e-06
-7.9344e-08
2.34143e-06
-2.05347e-07
3.18463e-06
-3.23056e-07
3.53974e-06
-4.10818e-07
3.79079e-06
-4.72363e-07
3.88666e-06
-5.14709e-07
3.85042e-06
-5.40753e-07
3.68589e-06
-5.54949e-07
3.44302e-06
-5.60664e-07
3.16098e-06
-5.61152e-07
2.86402e-06
-5.59211e-07
2.5689e-06
-5.56847e-07
2.28604e-06
-5.55387e-07
2.02049e-06
-5.55515e-07
1.77345e-06
-5.57374e-07
1.54338e-06
-5.60746e-07
1.32714e-06
-5.65206e-07
1.12085e-06
-5.70246e-07
9.2063e-07
-5.75355e-07
7.22916e-07
-5.8005e-07
5.24663e-07
-5.83885e-07
3.23389e-07
-5.86455e-07
1.17179e-07
-5.87384e-07
-9.53619e-08
-5.86321e-07
-3.15112e-07
-5.82951e-07
-5.42476e-07
-5.77016e-07
-7.77479e-07
-5.68365e-07
-1.01983e-06
-5.57046e-07
-1.26912e-06
-5.43463e-07
-1.52516e-06
-5.28629e-07
-1.78872e-06
-5.1455e-07
-2.06279e-06
-5.04691e-07
-2.35516e-06
-5.04004e-07
-2.68275e-06
-5.17032e-07
-3.07685e-06
-5.42616e-07
-3.5825e-06
-5.68943e-07
-4.24038e-06
-5.70972e-07
-5.06444e-06
-5.05239e-07
-5.98768e-06
-3.23601e-07
-6.55156e-06
-6.05921e-06
-3.4248e-08
2.37568e-06
-1.15595e-07
3.26597e-06
-1.95066e-07
3.61921e-06
-2.51464e-07
3.84719e-06
-2.91413e-07
3.92661e-06
-3.17273e-07
3.87628e-06
-3.33458e-07
3.70208e-06
-3.42617e-07
3.45218e-06
-3.46761e-07
3.16513e-06
-3.48021e-07
2.86528e-06
-3.48187e-07
2.56906e-06
-3.48501e-07
2.28635e-06
-3.49726e-07
2.02171e-06
-3.52179e-07
1.7759e-06
-3.55843e-07
1.54705e-06
-3.60494e-07
1.33179e-06
-3.6582e-07
1.12618e-06
-3.71494e-07
9.26304e-07
-3.77212e-07
7.28634e-07
-3.82704e-07
5.30155e-07
-3.8773e-07
3.28415e-07
-3.92063e-07
1.21512e-07
-3.95482e-07
-9.19432e-08
-3.97747e-07
-3.12847e-07
-3.98605e-07
-5.41618e-07
-3.97807e-07
-7.78276e-07
-3.95146e-07
-1.02249e-06
-3.90528e-07
-1.27373e-06
-3.84123e-07
-1.53157e-06
-3.76588e-07
-1.79626e-06
-3.69444e-07
-2.06993e-06
-3.65596e-07
-2.35901e-06
-3.69712e-07
-2.67863e-06
-3.87167e-07
-3.0594e-06
-4.19214e-07
-3.55045e-06
-4.5584e-07
-4.20376e-06
-4.74376e-07
-5.04591e-06
-4.37188e-07
-6.02487e-06
-2.8766e-07
-6.70109e-06
-6.34687e-06
1.49109e-08
2.36077e-06
-2.63093e-08
3.30719e-06
-7.06701e-08
3.66357e-06
-9.93989e-08
3.87592e-06
-1.18504e-07
3.94572e-06
-1.2904e-07
3.88681e-06
-1.35673e-07
3.70871e-06
-1.39638e-07
3.45614e-06
-1.41814e-07
3.1673e-06
-1.43185e-07
2.86665e-06
-1.44577e-07
2.57045e-06
-1.46526e-07
2.2883e-06
-1.49302e-07
2.02449e-06
-1.52941e-07
1.77954e-06
-1.57326e-07
1.55143e-06
-1.62279e-07
1.33674e-06
-1.67623e-07
1.13152e-06
-1.73216e-07
9.31897e-07
-1.78959e-07
7.34377e-07
-1.84789e-07
5.35985e-07
-1.9066e-07
3.34286e-07
-1.96525e-07
1.27377e-07
-2.02315e-07
-8.61534e-08
-2.07914e-07
-3.07248e-07
-2.1315e-07
-5.36382e-07
-2.17811e-07
-7.73615e-07
-2.21666e-07
-1.01864e-06
-2.24525e-07
-1.27088e-06
-2.26368e-07
-1.52973e-06
-2.27556e-07
-1.79507e-06
-2.29184e-07
-2.06831e-06
-2.33622e-07
-2.35457e-06
-2.45106e-07
-2.66715e-06
-2.69342e-07
-3.03516e-06
-3.0951e-07
-3.51028e-06
-3.57573e-07
-4.15569e-06
-3.92489e-07
-5.01099e-06
-3.78909e-07
-6.03845e-06
-2.55834e-07
-6.82417e-06
-6.6027e-06
5.86046e-08
2.30216e-06
5.95036e-08
3.30629e-06
4.86401e-08
3.67443e-06
4.54361e-08
3.87912e-06
4.70994e-08
3.94405e-06
5.11855e-08
3.88273e-06
5.39148e-08
3.70598e-06
5.55292e-08
3.45453e-06
5.59827e-08
3.16685e-06
5.53555e-08
2.86728e-06
5.37159e-08
2.57209e-06
5.11772e-08
2.29084e-06
4.78944e-08
2.02777e-06
4.40561e-08
1.78338e-06
3.98363e-08
1.55565e-06
3.53498e-08
1.34123e-06
3.06326e-08
1.13624e-06
2.56464e-08
9.36884e-07
2.02951e-08
7.39729e-07
1.44491e-08
5.41831e-07
7.96923e-09
3.40766e-07
7.35185e-10
1.34611e-07
-7.33914e-09
-7.8079e-08
-1.62745e-08
-2.98312e-07
-2.59969e-08
-5.26659e-07
-3.63548e-08
-7.63257e-07
-4.7128e-08
-1.00786e-06
-5.8068e-08
-1.25994e-06
-6.90096e-08
-1.51878e-06
-8.00592e-08
-1.78402e-06
-9.19256e-08
-2.05644e-06
-1.06476e-07
-2.34002e-06
-1.27432e-07
-2.64619e-06
-1.60486e-07
-3.00211e-06
-2.10206e-07
-3.46056e-06
-2.7085e-07
-4.09505e-06
-3.22635e-07
-4.95921e-06
-3.32508e-07
-6.02858e-06
-2.32102e-07
-6.92457e-06
-6.83481e-06
1.02257e-07
2.1999e-06
1.42699e-07
3.26585e-06
1.63618e-07
3.65351e-06
1.85266e-07
3.85747e-06
2.07289e-07
3.92203e-06
2.25675e-07
3.86434e-06
2.372e-07
3.69445e-06
2.44586e-07
3.44714e-06
2.48352e-07
3.16309e-06
2.4939e-07
2.86624e-06
2.4851e-07
2.57298e-06
2.46381e-07
2.29297e-06
2.43532e-07
2.03062e-06
2.40336e-07
1.78657e-06
2.37003e-07
1.55899e-06
2.33578e-07
1.34465e-06
2.29963e-07
1.13985e-06
2.25955e-07
9.40891e-07
2.21281e-07
7.44403e-07
2.15632e-07
5.4748e-07
2.08697e-07
3.47701e-07
2.00189e-07
1.4312e-07
1.89873e-07
-6.77631e-08
1.77595e-07
-2.86035e-07
1.63312e-07
-5.12376e-07
1.47094e-07
-7.47039e-07
1.29118e-07
-9.89887e-07
1.09649e-07
-1.24047e-06
8.89506e-08
-1.49809e-06
6.71295e-08
-1.7622e-06
4.38405e-08
-2.03315e-06
1.77108e-08
-2.31389e-06
-1.44733e-08
-2.61401e-06
-5.81304e-08
-2.95845e-06
-1.187e-07
-3.39999e-06
-1.92614e-07
-4.02114e-06
-2.60651e-07
-4.89117e-06
-2.92317e-07
-5.99691e-06
-2.11575e-07
-7.00532e-06
-7.04638e-06
1.44541e-07
2.05536e-06
2.23206e-07
3.18719e-06
2.73698e-07
3.60302e-06
3.18087e-07
3.81309e-06
3.59365e-07
3.88075e-06
3.92672e-07
3.83103e-06
4.14196e-07
3.67293e-06
4.28369e-07
3.43297e-06
4.36549e-07
3.15491e-06
4.40373e-07
2.86241e-06
4.41332e-07
2.57202e-06
4.4061e-07
2.29369e-06
4.39066e-07
2.03217e-06
4.3724e-07
1.7884e-06
4.35379e-07
1.56085e-06
4.3347e-07
1.34656e-06
4.31301e-07
1.14202e-06
4.28521e-07
9.43671e-07
4.24699e-07
7.48225e-07
4.19365e-07
5.52814e-07
4.12049e-07
3.55017e-07
4.0231e-07
1.52859e-07
3.89769e-07
-5.52221e-08
3.74137e-07
-2.70403e-07
3.55243e-07
-4.93483e-07
3.33059e-07
-7.24854e-07
3.07688e-07
-9.64516e-07
2.79375e-07
-1.21215e-06
2.48439e-07
-1.46715e-06
2.15144e-07
-1.7289e-06
1.79458e-07
-1.99747e-06
1.40507e-07
-2.27494e-06
9.56354e-08
-2.56914e-06
3.97529e-08
-2.90257e-06
-3.313e-08
-3.32711e-06
-1.21302e-07
-3.93296e-06
-2.05739e-07
-4.80673e-06
-2.56316e-07
-5.94633e-06
-1.97225e-07
-7.06441e-06
-7.24361e-06
1.84345e-07
1.87102e-06
3.00302e-07
3.07123e-06
3.79329e-07
3.52399e-06
4.463e-07
3.74611e-06
5.04085e-07
3.82297e-06
5.51859e-07
3.78326e-06
5.85191e-07
3.6396e-06
6.07522e-07
3.41064e-06
6.21436e-07
3.14099e-06
6.29347e-07
2.8545e-06
6.33345e-07
2.56802e-06
6.35074e-07
2.29196e-06
6.35702e-07
2.03154e-06
6.35935e-07
1.78817e-06
6.36067e-07
1.56071e-06
6.36053e-07
1.34658e-06
6.35591e-07
1.14248e-06
6.34213e-07
9.45049e-07
6.31349e-07
7.51089e-07
6.26387e-07
5.57776e-07
6.18714e-07
3.62691e-07
6.07747e-07
1.63826e-07
5.92971e-07
-4.04463e-08
5.73972e-07
-2.51404e-07
5.50443e-07
-4.69953e-07
5.22228e-07
-6.96639e-07
4.89339e-07
-9.31628e-07
4.51968e-07
-1.17478e-06
4.10445e-07
-1.42563e-06
3.65132e-07
-1.68359e-06
3.16236e-07
-1.94857e-06
2.63379e-07
-2.22208e-06
2.04558e-07
-2.51032e-06
1.35066e-07
-2.83307e-06
4.8528e-08
-3.24057e-06
-5.4903e-08
-3.82953e-06
-1.5645e-07
-4.70518e-06
-2.22873e-07
-5.87991e-06
-1.86689e-07
-7.10059e-06
-7.4303e-06
2.20862e-07
1.65016e-06
3.72566e-07
2.91953e-06
4.78742e-07
3.41782e-06
5.66514e-07
3.65834e-06
6.41483e-07
3.748e-06
7.04718e-07
3.72003e-06
7.50821e-07
3.5935e-06
7.82464e-07
3.37899e-06
8.03508e-07
3.11995e-06
8.16956e-07
2.84105e-06
8.25347e-07
2.55963e-06
8.30697e-07
2.28661e-06
8.34443e-07
2.02779e-06
8.3746e-07
1.78515e-06
8.40116e-07
1.55806e-06
8.42363e-07
1.34433e-06
8.43848e-07
1.141e-06
8.4401e-07
9.44886e-07
8.42174e-07
7.52925e-07
8.37608e-07
5.62341e-07
8.29577e-07
3.70722e-07
8.17372e-07
1.76031e-07
8.00343e-07
-2.34178e-08
7.77968e-07
-2.29029e-07
7.49779e-07
-4.41764e-07
7.1548e-07
-6.6234e-07
6.7498e-07
-8.91128e-07
6.28383e-07
-1.12819e-06
5.7597e-07
-1.37321e-06
5.18157e-07
-1.62577e-06
4.55368e-07
-1.88578e-06
3.87667e-07
-2.15438e-06
3.13736e-07
-2.43639e-06
2.29387e-07
-2.74872e-06
1.27864e-07
-3.13905e-06
7.59983e-09
-3.70927e-06
-1.1215e-07
-4.58544e-06
-1.95223e-07
-5.79684e-06
-1.77134e-07
-7.11868e-06
-7.60743e-06
2.52089e-07
1.39807e-06
4.37713e-07
2.7339e-06
5.70278e-07
3.28525e-06
6.78293e-07
3.55033e-06
7.70793e-07
3.6555e-06
8.48466e-07
3.64235e-06
9.09183e-07
3.53278e-06
9.52381e-07
3.33579e-06
9.82552e-07
3.08978e-06
1.00334e-06
2.82027e-06
1.01773e-06
2.54523e-06
1.02808e-06
2.27626e-06
1.03606e-06
2.01981e-06
1.04273e-06
1.77849e-06
1.04853e-06
1.55226e-06
1.05346e-06
1.3394e-06
1.05716e-06
1.1373e-06
1.05901e-06
9.4303e-07
1.05828e-06
7.53661e-07
1.05413e-06
5.66491e-07
1.04573e-06
3.79123e-07
1.03227e-06
1.89493e-07
1.01295e-06
-4.09702e-09
9.87176e-07
-2.03259e-07
9.54305e-07
-4.08893e-07
9.13887e-07
-6.21922e-07
8.6569e-07
-8.42932e-07
8.09686e-07
-1.07218e-06
7.46086e-07
-1.30961e-06
6.75363e-07
-1.55505e-06
5.98136e-07
-1.80855e-06
5.14799e-07
-2.07104e-06
4.24631e-07
-2.34622e-06
3.24238e-07
-2.64833e-06
2.06828e-07
-3.02164e-06
6.94625e-08
-3.5719e-06
-6.974e-08
-4.44623e-06
-1.70486e-07
-5.69609e-06
-1.68037e-07
-7.12113e-06
-7.77547e-06
2.75073e-07
1.123e-06
4.92086e-07
2.51689e-06
6.50766e-07
3.12657e-06
7.79134e-07
3.42196e-06
8.89031e-07
3.5456e-06
9.82343e-07
3.54904e-06
1.05868e-06
3.45644e-06
1.11565e-06
3.27883e-06
1.15744e-06
3.04799e-06
1.1879e-06
2.7898e-06
1.21035e-06
2.52278e-06
1.22743e-06
2.25919e-06
1.24105e-06
2.00618e-06
1.25244e-06
1.7671e-06
1.26219e-06
1.54251e-06
1.27037e-06
1.33122e-06
1.27666e-06
1.13102e-06
1.28044e-06
9.39251e-07
1.28092e-06
7.53174e-07
1.27724e-06
5.70175e-07
1.26847e-06
3.87895e-07
1.2537e-06
2.04266e-07
1.23212e-06
1.74763e-08
1.20288e-06
-1.7402e-07
1.16527e-06
-3.7128e-07
1.11867e-06
-5.75322e-07
1.0627e-06
-7.86956e-07
9.97153e-07
-1.00664e-06
9.22148e-07
-1.23461e-06
8.38128e-07
-1.47103e-06
7.45825e-07
-1.71625e-06
6.4601e-07
-1.97123e-06
5.38603e-07
-2.23881e-06
4.20899e-07
-2.53063e-06
2.86509e-07
-2.88725e-06
1.31645e-07
-3.41704e-06
-2.50785e-08
-4.28951e-06
-1.41664e-07
-5.5795e-06
-1.63021e-07
-7.09977e-06
-7.93849e-06
2.84232e-07
8.38763e-07
5.30206e-07
2.27092e-06
7.16054e-07
2.94072e-06
8.65656e-07
3.27236e-06
9.93278e-07
3.41798e-06
1.10367e-06
3.43865e-06
1.19669e-06
3.36342e-06
1.26988e-06
3.20564e-06
1.3261e-06
2.99177e-06
1.36909e-06
2.74681e-06
1.40222e-06
2.48965e-06
1.42829e-06
2.23312e-06
1.4494e-06
1.98507e-06
1.46697e-06
1.74953e-06
1.48177e-06
1.52771e-06
1.494e-06
1.31898e-06
1.50343e-06
1.12159e-06
1.5095e-06
9.33185e-07
1.51143e-06
7.51244e-07
1.50833e-06
5.73278e-07
1.49923e-06
3.96987e-07
1.48318e-06
2.20317e-07
1.45926e-06
4.13972e-08
1.42652e-06
-1.41278e-07
1.38409e-06
-3.28849e-07
1.33123e-06
-5.22461e-07
1.26736e-06
-7.23095e-07
1.19213e-06
-9.31401e-07
1.10547e-06
-1.14795e-06
1.00779e-06
-1.37335e-06
8.99852e-07
-1.60832e-06
7.82705e-07
-1.85408e-06
6.56876e-07
-2.11298e-06
5.20458e-07
-2.39421e-06
3.6782e-07
-2.73461e-06
1.94639e-07
-3.24386e-06
1.89584e-08
-4.11383e-06
-1.20057e-07
-5.44049e-06
-1.57344e-07
-7.06248e-06
-8.09583e-06
2.72341e-07
5.66422e-07
5.45847e-07
1.99741e-06
7.60841e-07
2.72573e-06
9.33137e-07
3.10006e-06
1.07963e-06
3.27149e-06
1.20836e-06
3.30992e-06
1.32e-06
3.25178e-06
1.4121e-06
3.11354e-06
1.48594e-06
2.91794e-06
1.54466e-06
2.68809e-06
1.59153e-06
2.44277e-06
1.62936e-06
2.19529e-06
1.66035e-06
1.95409e-06
1.68606e-06
1.72382e-06
1.70744e-06
1.50632e-06
1.72488e-06
1.30155e-06
1.73828e-06
1.10819e-06
1.74721e-06
9.24259e-07
1.75096e-06
7.47493e-07
1.74867e-06
5.75565e-07
1.73938e-06
4.06276e-07
1.7221e-06
2.376e-07
1.69583e-06
6.76626e-08
1.65952e-06
-1.04962e-07
1.61218e-06
-2.81509e-07
1.55295e-06
-4.63235e-07
1.48107e-06
-6.51211e-07
1.39595e-06
-8.46288e-07
1.29741e-06
-1.04941e-06
1.18571e-06
-1.26165e-06
1.06163e-06
-1.48423e-06
9.26332e-07
-1.71878e-06
7.80868e-07
-1.96752e-06
6.2438e-07
-2.23772e-06
4.52016e-07
-2.56225e-06
2.58988e-07
-3.05083e-06
6.05676e-08
-3.91541e-06
-9.71504e-08
-5.28277e-06
-1.51749e-07
-7.00789e-06
-8.24758e-06
2.30597e-07
3.35825e-07
5.36105e-07
1.6919e-06
7.79509e-07
2.48233e-06
9.75773e-07
2.9038e-06
1.14302e-06
3.10425e-06
1.29176e-06
3.16117e-06
1.42429e-06
3.11925e-06
1.53821e-06
2.99961e-06
1.63333e-06
2.82283e-06
1.71158e-06
2.60984e-06
1.77577e-06
2.37858e-06
1.82861e-06
2.14245e-06
1.87233e-06
1.91037e-06
1.90862e-06
1.68753e-06
1.93858e-06
1.47637e-06
1.96279e-06
1.27733e-06
1.98137e-06
1.08961e-06
1.99403e-06
9.11592e-07
2.00022e-06
7.41304e-07
1.99916e-06
5.76628e-07
1.98993e-06
4.15506e-07
1.97156e-06
2.55972e-07
1.94298e-06
9.62404e-08
1.90304e-06
-6.50272e-08
1.85073e-06
-2.29194e-07
1.78503e-06
-3.97531e-07
1.70497e-06
-5.71156e-07
1.60982e-06
-7.51141e-07
1.4992e-06
-9.38788e-07
1.37325e-06
-1.1357e-06
1.23263e-06
-1.34361e-06
1.07854e-06
-1.56469e-06
9.12276e-07