/*--------------------------------*- C++ -*----------------------------------*\
  =========                 |
  \\      /  F ield         | OpenFOAM: The Open Source CFD Toolbox
   \\    /   O peration     | Website:  https://openfoam.org
    \\  /    A nd           | Version:  12
     \\/     M anipulation  |
\*---------------------------------------------------------------------------*/
FoamFile
{
    format      ascii;
    class       volVectorField;
    location    "4";
    object      U;
}
// * * * * * * * * * * * * * * * * * * * * * * * * * * * * * * * * * * * * * //

dimensions      [0 1 -1 0 0 0 0];

internalField   nonuniform List<vector> 
1600
(
(0.000947863 -0.000858378 0)
(0.00486791 -0.00135861 0)
(0.00887056 -0.00127423 0)
(0.0115269 -0.000554112 0)
(0.0124692 -3.57948e-05 0)
(0.0123526 -6.69132e-05 0)
(0.011988 -0.000351236 0)
(0.0116156 -0.00068212 0)
(0.0110742 -0.000777128 0)
(0.00989526 -0.000739285 0)
(0.00783987 -0.00090974 0)
(0.00384853 -0.000557286 0)
(-0.00462938 0.000496621 0)
(-0.0147015 0.00397544 0)
(-0.0300792 0.00898186 0)
(-0.052306 0.0113757 0)
(-0.0720595 0.0109442 0)
(-0.0901617 0.00998217 0)
(-0.105404 0.00863051 0)
(-0.118252 0.00725495 0)
(-0.128468 0.00583922 0)
(-0.136246 0.00444908 0)
(-0.141443 0.00304895 0)
(-0.143855 0.00172012 0)
(-0.144249 -8.95481e-05 0)
(-0.141053 -0.00174506 0)
(-0.135283 -0.00370034 0)
(-0.125659 -0.00558795 0)
(-0.112811 -0.00761444 0)
(-0.0965373 -0.00982654 0)
(-0.0770341 -0.0118594 0)
(-0.0548158 -0.0132532 0)
(-0.0312208 -0.0135881 0)
(-0.0072134 -0.0123357 0)
(0.0125315 -0.00990766 0)
(0.0265321 -0.00320865 0)
(0.0271527 0.00317404 0)
(0.0210185 0.00477301 0)
(0.00982559 0.00366634 0)
(0.00202245 0.0024784 0)
(0.00170206 -0.00484639 0)
(0.00827834 -0.0073972 0)
(0.0129083 -0.00580604 0)
(0.0156068 -0.00288988 0)
(0.016243 -0.000478026 0)
(0.0149168 0.000792558 0)
(0.0121523 0.00120631 0)
(0.00814646 0.00154402 0)
(0.00204357 0.00267301 0)
(-0.00733895 0.00480814 0)
(-0.0211482 0.00823608 0)
(-0.0419347 0.0145654 0)
(-0.0668803 0.0216088 0)
(-0.0911283 0.0277193 0)
(-0.111699 0.0300827 0)
(-0.129174 0.0289422 0)
(-0.14413 0.0263572 0)
(-0.156768 0.0229573 0)
(-0.1671 0.0192835 0)
(-0.175357 0.0155835 0)
(-0.181492 0.011898 0)
(-0.18562 0.00825539 0)
(-0.187677 0.0045682 0)
(-0.187695 0.000745972 0)
(-0.18563 -0.00343409 0)
(-0.181197 -0.00786993 0)
(-0.174307 -0.0126016 0)
(-0.164631 -0.0176476 0)
(-0.151901 -0.0229182 0)
(-0.135565 -0.0281381 0)
(-0.116322 -0.033072 0)
(-0.0942381 -0.0368487 0)
(-0.0697203 -0.0379402 0)
(-0.0445282 -0.0352992 0)
(-0.0196921 -0.0273844 0)
(0.00181498 -0.012358 0)
(0.0153692 0.00387832 0)
(0.0150047 0.0104606 0)
(0.00889671 0.0124322 0)
(0.00142221 0.00900758 0)
(0.00254392 -0.0108147 0)
(0.00886404 -0.013145 0)
(0.0114421 -0.00919295 0)
(0.0120415 -0.00366267 0)
(0.0102991 0.00078539 0)
(0.00637428 0.00377052 0)
(-0.000400282 0.00623822 0)
(-0.0110908 0.00984312 0)
(-0.0267357 0.0160522 0)
(-0.0477083 0.0248114 0)
(-0.0720496 0.034121 0)
(-0.0954975 0.0407094 0)
(-0.116789 0.0444334 0)
(-0.134434 0.0455483 0)
(-0.148872 0.0441142 0)
(-0.160668 0.0409035 0)
(-0.170393 0.0365395 0)
(-0.178328 0.0315367 0)
(-0.18471 0.0263259 0)
(-0.189689 0.0210652 0)
(-0.193289 0.0158407 0)
(-0.195683 0.0104426 0)
(-0.196632 0.00513595 0)
(-0.196178 -0.000398867 0)
(-0.194119 -0.00623287 0)
(-0.190565 -0.0124824 0)
(-0.185325 -0.019406 0)
(-0.178179 -0.0270725 0)
(-0.168941 -0.0354232 0)
(-0.157184 -0.0440631 0)
(-0.142449 -0.0523674 0)
(-0.124602 -0.0590812 0)
(-0.103422 -0.0622872 0)
(-0.0803881 -0.0608555 0)
(-0.0553859 -0.0515817 0)
(-0.0289064 -0.0319715 0)
(-0.00505792 -0.00487368 0)
(0.00218939 0.0107548 0)
(0.0022101 0.0162538 0)
(5.42245e-07 0.0124129 0)
(0.00287456 -0.0170689 0)
(0.00626499 -0.0163455 0)
(0.00609917 -0.00938544 0)
(0.00341551 -0.00135717 0)
(-0.00175192 0.00547078 0)
(-0.0102543 0.0117559 0)
(-0.0230013 0.0188168 0)
(-0.0404557 0.0277496 0)
(-0.0617639 0.038165 0)
(-0.0852141 0.0482958 0)
(-0.107784 0.0558297 0)
(-0.126452 0.0596331 0)
(-0.141555 0.0603853 0)
(-0.153334 0.0585398 0)
(-0.162778 0.054787 0)
(-0.170354 0.0498071 0)
(-0.176475 0.0440786 0)
(-0.181339 0.0379469 0)
(-0.185613 0.0313256 0)
(-0.188963 0.0247706 0)
(-0.191483 0.0181846 0)
(-0.192953 0.0117772 0)
(-0.193463 0.00514342 0)
(-0.192973 -0.00166833 0)
(-0.191462 -0.00880838 0)
(-0.188846 -0.016407 0)
(-0.185031 -0.024641 0)
(-0.17988 -0.0335963 0)
(-0.173252 -0.0434833 0)
(-0.16509 -0.0543633 0)
(-0.155177 -0.065787 0)
(-0.143267 -0.0767498 0)
(-0.128575 -0.0850129 0)
(-0.109139 -0.0865011 0)
(-0.0860607 -0.0791122 0)
(-0.0583478 -0.0588775 0)
(-0.0251726 -0.0236697 0)
(-0.00606199 0.00429489 0)
(-0.00147374 0.0147033 0)
(-5.13592e-05 0.0122993 0)
(0.00182407 -0.0201781 0)
(0.00184739 -0.0160518 0)
(-0.0019996 -0.00570167 0)
(-0.00818856 0.0047369 0)
(-0.0173574 0.0148235 0)
(-0.0303471 0.0251969 0)
(-0.0475214 0.0366447 0)
(-0.0680394 0.0489063 0)
(-0.0899838 0.0604198 0)
(-0.110629 0.068973 0)
(-0.127319 0.0731152 0)
(-0.140312 0.0736575 0)
(-0.150505 0.0715845 0)
(-0.158302 0.0674705 0)
(-0.16446 0.0619823 0)
(-0.169307 0.0555767 0)
(-0.173436 0.0485256 0)
(-0.176774 0.0412336 0)
(-0.179204 0.034064 0)
(-0.180681 0.0268482 0)
(-0.181543 0.0196318 0)
(-0.181785 0.0123987 0)
(-0.181551 0.0050309 0)
(-0.180829 -0.00255435 0)
(-0.179597 -0.0105245 0)
(-0.177704 -0.0190581 0)
(-0.175203 -0.0283431 0)
(-0.171982 -0.0385099 0)
(-0.167956 -0.049607 0)
(-0.162937 -0.0615367 0)
(-0.15666 -0.073992 0)
(-0.148758 -0.0865332 0)
(-0.139111 -0.0983981 0)
(-0.126508 -0.106286 0)
(-0.108365 -0.105004 0)
(-0.0833841 -0.0899403 0)
(-0.0504536 -0.0569582 0)
(-0.0147816 -0.0115052 0)
(-0.00163322 0.0100571 0)
(0.000704665 0.0117898 0)
(-0.000323149 -0.0204645 0)
(-0.0041484 -0.0116248 0)
(-0.0112705 0.00127912 0)
(-0.0207956 0.0145901 0)
(-0.0335197 0.028173 0)
(-0.0496892 0.0422331 0)
(-0.0686989 0.0564707 0)
(-0.0889688 0.0696241 0)
(-0.108018 0.0796377 0)
(-0.123282 0.0846911 0)
(-0.134786 0.0854169 0)
(-0.143678 0.0832697 0)
(-0.150414 0.0789659 0)
(-0.15544 0.0731419 0)
(-0.159218 0.0663026 0)
(-0.161964 0.0588647 0)
(-0.163735 0.0511526 0)
(-0.164821 0.043265 0)
(-0.165282 0.0354059 0)
(-0.165489 0.0275945 0)
(-0.165369 0.0199071 0)
(-0.164944 0.012264 0)
(-0.164258 0.00455321 0)
(-0.163316 -0.00335196 0)
(-0.162108 -0.0116236 0)
(-0.160636 -0.0204713 0)
(-0.158948 -0.0300967 0)
(-0.157031 -0.0407042 0)
(-0.154864 -0.0524482 0)
(-0.152352 -0.0653622 0)
(-0.149301 -0.0792396 0)
(-0.145353 -0.0934667 0)
(-0.139873 -0.1069 0)
(-0.131787 -0.118072 0)
(-0.119815 -0.124071 0)
(-0.100963 -0.118049 0)
(-0.0733194 -0.0938874 0)
(-0.0330079 -0.0452558 0)
(-0.00391561 -0.00101918 0)
(0.00162384 0.0114611 0)
(-0.00276319 -0.0161165 0)
(-0.0101448 -0.00385935 0)
(-0.0200566 0.0114493 0)
(-0.0324169 0.0274896 0)
(-0.0476194 0.044079 0)
(-0.0650921 0.0604599 0)
(-0.0837225 0.0755488 0)
(-0.101504 0.0874811 0)
(-0.115899 0.0942092 0)
(-0.126428 0.0957787 0)
(-0.134255 0.0939112 0)
(-0.14004 0.0896487 0)
(-0.144065 0.0836424 0)
(-0.146742 0.0764847 0)
(-0.14837 0.0686049 0)
(-0.149181 0.060329 0)
(-0.149392 0.0519151 0)
(-0.149225 0.0435308 0)
(-0.148774 0.0353174 0)
(-0.148154 0.0272672 0)
(-0.147353 0.019364 0)
(-0.146422 0.011528 0)
(-0.145377 0.00365138 0)
(-0.14424 -0.00439249 0)
(-0.143028 -0.0127629 0)
(-0.14178 -0.0216576 0)
(-0.140545 -0.0312749 0)
(-0.139362 -0.0418256 0)
(-0.138258 -0.0535083 0)
(-0.137214 -0.0664713 0)
(-0.136136 -0.0807252 0)
(-0.134771 -0.0960164 0)
(-0.132565 -0.111562 0)
(-0.128529 -0.125711 0)
(-0.12105 -0.135929 0)
(-0.108229 -0.138242 0)
(-0.0876843 -0.125288 0)
(-0.0559882 -0.0878642 0)
(-0.0122872 -0.0205463 0)
(0.0024713 0.0102577 0)
(-0.00491224 -0.00855359 0)
(-0.0150909 0.00698207 0)
(-0.027158 0.0240752 0)
(-0.0416144 0.0423605 0)
(-0.0579084 0.0608384 0)
(-0.0751671 0.0780347 0)
(-0.0919506 0.0922838 0)
(-0.105981 0.101369 0)
(-0.116143 0.104544 0)
(-0.123301 0.103392 0)
(-0.128448 0.0994441 0)
(-0.131832 0.0934534 0)
(-0.1338 0.0860549 0)
(-0.13472 0.0778122 0)
(-0.134863 0.0691126 0)
(-0.134469 0.060256 0)
(-0.133743 0.0514559 0)
(-0.132831 0.042839 0)
(-0.131799 0.0344682 0)
(-0.130696 0.0263118 0)
(-0.129536 0.0183276 0)
(-0.128344 0.0104316 0)
(-0.127133 0.00251624 0)
(-0.12592 -0.00554551 0)
(-0.12473 -0.0139032 0)
(-0.12361 -0.0227348 0)
(-0.12262 -0.032234 0)
(-0.121829 -0.0426114 0)
(-0.121302 -0.0540782 0)
(-0.12107 -0.0668205 0)
(-0.121098 -0.0809433 0)
(-0.121223 -0.0963664 0)
(-0.121013 -0.112682 0)
(-0.119574 -0.128877 0)
(-0.115533 -0.142875 0)
(-0.107125 -0.15108 0)
(-0.0926792 -0.147693 0)
(-0.068865 -0.123497 0)
(-0.0283114 -0.0585421 0)
(0.00105608 0.00215451 0)
(-0.0062165 0.00192929 0)
(-0.01856 0.0201138 0)
(-0.0321357 0.0384472 0)
(-0.0476047 0.0580787 0)
(-0.0638984 0.0772063 0)
(-0.0798713 0.0939193 0)
(-0.0938992 0.105871 0)
(-0.104329 0.111554 0)
(-0.111334 0.111722 0)
(-0.116175 0.108427 0)
(-0.119288 0.10273 0)
(-0.120911 0.0953035 0)
(-0.121446 0.0868132 0)
(-0.121211 0.077775 0)
(-0.120454 0.0685338 0)
(-0.119397 0.0593422 0)
(-0.118186 0.0503563 0)
(-0.116913 0.0416512 0)
(-0.115622 0.0332372 0)
(-0.114341 0.0250697 0)
(-0.113077 0.0170872 0)
(-0.111833 0.00919821 0)
(-0.110612 0.00130138 0)
(-0.109413 -0.00672076 0)
(-0.108257 -0.015005 0)
(-0.107188 -0.0237066 0)
(-0.106272 -0.0330026 0)
(-0.105594 -0.0430962 0)
(-0.10525 -0.0542145 0)
(-0.105318 -0.0665938 0)
(-0.105828 -0.0804371 0)
(-0.106695 -0.0958291 0)
(-0.107633 -0.112595 0)
(-0.107948 -0.130101 0)
(-0.106315 -0.146795 0)
(-0.101025 -0.159597 0)
(-0.0908224 -0.162895 0)
(-0.073259 -0.150022 0)
(-0.0446666 -0.103042 0)
(-0.00477009 -0.0126284 0)
(-0.00706014 0.0142857 0)
(-0.0206244 0.0345906 0)
(-0.0347698 0.0535583 0)
(-0.0502914 0.0735452 0)
(-0.065726 0.0923915 0)
(-0.0798611 0.107464 0)
(-0.0910866 0.116498 0)
(-0.0985141 0.118839 0)
(-0.103433 0.116673 0)
(-0.106583 0.111574 0)
(-0.108215 0.10439 0)
(-0.108659 0.0958185 0)
(-0.108302 0.086522 0)
(-0.107414 0.0769442 0)
(-0.106217 0.0673818 0)
(-0.104877 0.0580342 0)
(-0.103503 0.0489978 0)
(-0.102155 0.0403007 0)
(-0.100864 0.0319195 0)
(-0.0996371 0.0237931 0)
(-0.0984642 0.0158484 0)
(-0.0973278 0.00798809 0)
(-0.0962085 0.00011346 0)
(-0.0950934 -0.00787658 0)
(-0.093995 -0.0161053 0)
(-0.092945 -0.0246997 0)
(-0.0920061 -0.0338097 0)
(-0.091269 -0.0436159 0)
(-0.0908458 -0.0543378 0)
(-0.0908504 -0.0662334 0)
(-0.0913617 -0.0795769 0)
(-0.0923706 -0.094601 0)
(-0.0937079 -0.111386 0)
(-0.0949084 -0.129683 0)
(-0.0948805 -0.148524 0)
(-0.0918013 -0.16533 0)
(-0.0847508 -0.17394 0)
(-0.0713581 -0.169438 0)
(-0.0501199 -0.135699 0)
(-0.0134419 -0.0341179 0)
(-0.00732886 0.0273358 0)
(-0.0212482 0.0495181 0)
(-0.0352058 0.068528 0)
(-0.0501483 0.0881935 0)
(-0.0642697 0.106006 0)
(-0.076475 0.11887 0)
(-0.0846952 0.124341 0)
(-0.0902785 0.124149 0)
(-0.0937111 0.12003 0)
(-0.0956459 0.113381 0)
(-0.0962895 0.104965 0)
(-0.0960331 0.0955234 0)
(-0.0952078 0.0856583 0)
(-0.0940369 0.0757437 0)
(-0.0927068 0.0660251 0)
(-0.0913493 0.0566407 0)
(-0.0900442 0.047642 0)
(-0.0888313 0.0390191 0)
(-0.0877208 0.0307203 0)
(-0.0866977 0.0226655 0)
(-0.0857334 0.0147667 0)
(-0.084793 0.00692757 0)
(-0.0838405 -0.00094809 0)
(-0.0828581 -0.00894976 0)
(-0.0818451 -0.0171749 0)
(-0.0808192 -0.025724 0)
(-0.0798332 -0.0347159 0)
(-0.0789723 -0.0443016 0)
(-0.0783535 -0.0546821 0)
(-0.0781112 -0.0661214 0)
(-0.0783654 -0.0789431 0)
(-0.0791683 -0.0934901 0)
(-0.0804386 -0.110026 0)
(-0.0818856 -0.128593 0)
(-0.0827201 -0.148784 0)
(-0.0812168 -0.168893 0)
(-0.0758679 -0.182583 0)
(-0.0656435 -0.184984 0)
(-0.0470597 -0.16331 0)
(-0.0176714 -0.0797334 0)
(-0.00712014 0.0403819 0)
(-0.0206943 0.0642226 0)
(-0.0339172 0.0828495 0)
(-0.0477757 0.10169 0)
(-0.0604636 0.117943 0)
(-0.0701943 0.12772 0)
(-0.0763894 0.130398 0)
(-0.0807213 0.128055 0)
(-0.0830627 0.122262 0)
(-0.0841787 0.114291 0)
(-0.0842334 0.104895 0)
(-0.0836302 0.0948144 0)
(-0.082628 0.0845669 0)
(-0.0814225 0.0744646 0)
(-0.0801718 0.0647021 0)
(-0.0789754 0.0553676 0)
(-0.077889 0.0464689 0)
(-0.0769305 0.037961 0)
(-0.0760889 0.029765 0)
(-0.0753333 0.0217834 0)
(-0.0746211 0.0139181 0)
(-0.0739068 0.00607409 0)
(-0.07315 -0.00183889 0)
(-0.0723241 -0.00989998 0)
(-0.0714174 -0.0181803 0)
(-0.0704382 -0.0267554 0)
(-0.0694247 -0.0357119 0)
(-0.0684475 -0.0451659 0)
(-0.0676142 -0.0552862 0)
(-0.0670637 -0.0663227 0)
(-0.0669448 -0.078625 0)
(-0.0673661 -0.09263 0)
(-0.0683262 -0.10878 0)
(-0.0696408 -0.127347 0)
(-0.0707966 -0.148266 0)
(-0.0704161 -0.170642 0)
(-0.0661954 -0.189693 0)
(-0.0585677 -0.196562 0)
(-0.042538 -0.184397 0)
(-0.0150223 -0.112397 0)
(-0.00651008 0.0528088 0)
(-0.0191883 0.0781102 0)
(-0.0313192 0.0960599 0)
(-0.0437808 0.11368 0)
(-0.0548565 0.128015 0)
(-0.0622373 0.134685 0)
(-0.067332 0.135167 0)
(-0.0705218 0.130938 0)
(-0.0721323 0.123719 0)
(-0.0727265 0.114654 0)
(-0.0724831 0.104504 0)
(-0.0717657 0.093964 0)
(-0.0707824 0.0834723 0)
(-0.0697068 0.0732927 0)
(-0.0686627 0.0635683 0)
(-0.067724 0.0543393 0)
(-0.066923 0.0455732 0)
(-0.0662579 0.0371924 0)
(-0.0657017 0.0290948 0)
(-0.0652137 0.0211699 0)
(-0.0647455 0.0133137 0)
(-0.0642486 0.00543412 0)
(-0.0636825 -0.00255103 0)
(-0.0630161 -0.0107087 0)
(-0.0622317 -0.0190927 0)
(-0.0613298 -0.0277557 0)
(-0.0603339 -0.0367558 0)
(-0.0592972 -0.0461747 0)
(-0.058308 -0.0561441 0)
(-0.0574938 -0.0668825 0)
(-0.0570115 -0.0787356 0)
(-0.0570114 -0.0921961 0)
(-0.0575639 -0.107857 0)
(-0.0585692 -0.12624 0)
(-0.0596831 -0.147543 0)
(-0.0598645 -0.171319 0)
(-0.0568328 -0.195346 0)
(-0.0504248 -0.207191 0)
(-0.0372341 -0.203154 0)
(-0.0132669 -0.143033 0)
(-0.00561523 0.0640585 0)
(-0.0170345 0.0907909 0)
(-0.0278168 0.107922 0)
(-0.0388261 0.124186 0)
(-0.0479941 0.13611 0)
(-0.0536385 0.140295 0)
(-0.057857 0.138878 0)
(-0.0601908 0.133074 0)
(-0.0613233 0.124667 0)
(-0.0616136 0.114724 0)
(-0.0612641 0.104006 0)
(-0.0605821 0.0931436 0)
(-0.0597391 0.0825155 0)
(-0.05888 0.0723365 0)
(-0.0580993 0.0627003 0)
(-0.0574469 0.0536029 0)
(-0.0569347 0.0449752 0)
(-0.0565462 0.0367121 0)
(-0.0562459 0.0286939 0)
(-0.05599 0.0208021 0)
(-0.0557304 0.0129307 0)
(-0.0554215 0.00499099 0)
(-0.0550251 -0.00309061 0)
(-0.0545103 -0.0113706 0)
(-0.0538572 -0.0198896 0)
(-0.0530598 -0.0286818 0)
(-0.0521306 -0.0377824 0)
(-0.051105 -0.0472431 0)
(-0.0500499 -0.0571589 0)
(-0.049071 -0.0677083 0)
(-0.0483157 -0.0792093 0)
(-0.0479547 -0.0921738 0)
(-0.048121 -0.107307 0)
(-0.0488066 -0.125369 0)
(-0.0497581 -0.14686 0)
(-0.0502155 -0.171747 0)
(-0.048401 -0.198336 0)
(-0.0425908 -0.216339 0)
(-0.0324121 -0.217663 0)
(-0.0109312 -0.167241 0)
(-0.00460748 0.0738786 0)
(-0.0144832 0.101977 0)
(-0.0237908 0.118249 0)
(-0.0332736 0.133082 0)
(-0.0404956 0.142521 0)
(-0.0448913 0.144827 0)
(-0.0483516 0.141775 0)
(-0.0500501 0.134675 0)
(-0.0508703 0.125298 0)
(-0.0510051 0.114669 0)
(-0.0506683 0.103532 0)
(-0.0501071 0.0924559 0)
(-0.0494619 0.0817684 0)
(-0.0488485 0.0716381 0)
(-0.0483348 0.0621128 0)
(-0.0479497 0.0531489 0)
(-0.0476902 0.0446466 0)
(-0.0475316 0.0364797 0)
(-0.0474366 0.0285167 0)
(-0.0473631 0.0206352 0)
(-0.0472685 0.0127297 0)
(-0.0471127 0.00471513 0)
(-0.0468617 -0.00347504 0)
(-0.0464875 -0.0118887 0)
(-0.0459703 -0.0205565 0)
(-0.0453003 -0.0294991 0)
(-0.0444812 -0.0387339 0)
(-0.0435345 -0.048289 0)
(-0.0425068 -0.0582272 0)
(-0.0414795 -0.0686858 0)
(-0.0405784 -0.0799404 0)
(-0.0399726 -0.0924867 0)
(-0.0398344 -0.107095 0)
(-0.0402371 -0.124723 0)
(-0.0410142 -0.146176 0)
(-0.0416415 -0.171802 0)
(-0.0405857 -0.200677 0)
(-0.035564 -0.224581 0)
(-0.0282631 -0.230633 0)
(-0.00950108 -0.188969 0)
(-0.0034603 0.081827 0)
(-0.0117015 0.111471 0)
(-0.0194673 0.12696 0)
(-0.0273317 0.140278 0)
(-0.0328069 0.14756 0)
(-0.0363699 0.148467 0)
(-0.039042 0.144026 0)
(-0.0402818 0.135887 0)
(-0.0408898 0.125743 0)
(-0.0409607 0.114591 0)
(-0.0406989 0.103155 0)
(-0.040294 0.0919467 0)
(-0.0398587 0.0812506 0)
(-0.0394798 0.0711924 0)
(-0.0392024 0.0617795 0)
(-0.039039 0.052935 0)
(-0.0389779 0.0445352 0)
(-0.038992 0.0364392 0)
(-0.0390469 0.0285089 0)
(-0.0391063 0.0206205 0)
(-0.0391348 0.0126703 0)
(-0.0390999 0.00457641 0)
(-0.0389727 -0.00372248 0)
(-0.0387294 -0.0122677 0)
(-0.0383517 -0.0210827 0)
(-0.0378278 -0.0301788 0)
(-0.0371553 -0.0395602 0)
(-0.0363451 -0.0492371 0)
(-0.0354276 -0.0592456 0)
(-0.0344624 -0.0696855 0)
(-0.0335508 -0.0807845 0)
(-0.032846 -0.092996 0)
(-0.0325371 -0.107106 0)
(-0.0327679 -0.124234 0)
(-0.0334729 -0.145517 0)
(-0.0342432 -0.171567 0)
(-0.0338223 -0.201771 0)
(-0.0302339 -0.230655 0)
(-0.0238751 -0.241514 0)
(-0.00805101 -0.20672 0)
(-0.00237132 0.0880918 0)
(-0.00880882 0.119247 0)
(-0.0150154 0.134015 0)
(-0.0212922 0.145949 0)
(-0.0252587 0.151495 0)
(-0.0281426 0.151263 0)
(-0.0300606 0.145743 0)
(-0.0309621 0.136803 0)
(-0.031415 0.126076 0)
(-0.0314707 0.114543 0)
(-0.031305 0.102902 0)
(-0.0310575 0.0916216 0)
(-0.0308138 0.0809463 0)
(-0.0306338 0.0709652 0)
(-0.0305444 0.0616522 0)
(-0.030547 0.0529046 0)
(-0.0306262 0.0445818 0)
(-0.030757 0.0365338 0)
(-0.0309111 0.0286191 0)
(-0.0310597 0.0207141 0)
(-0.031176 0.0127172 0)
(-0.0312351 0.00454928 0)
(-0.0312144 -0.00384776 0)
(-0.0310949 -0.0125109 0)
(-0.0308602 -0.021459 0)
(-0.0304983 -0.0306971 0)
(-0.0300026 -0.0402206 0)
(-0.0293763 -0.0500258 0)
(-0.0286371 -0.0601281 0)
(-0.0278264 -0.0705952 0)
(-0.027023 -0.0816083 0)
(-0.026358 -0.0935664 0)
(-0.0260187 -0.107231 0)
(-0.026197 -0.123814 0)
(-0.0269243 -0.144765 0)
(-0.0278458 -0.171082 0)
(-0.0279029 -0.202544 0)
(-0.0254691 -0.235402 0)
(-0.0209045 -0.250952 0)
(-0.00700866 -0.222655 0)
(-0.00113629 0.0922265 0)
(-0.00587682 0.125157 0)
(-0.0106008 0.13954 0)
(-0.0152965 0.150154 0)
(-0.0180053 0.154407 0)
(-0.0201867 0.153306 0)
(-0.0214726 0.147 0)
(-0.0220979 0.137481 0)
(-0.0224247 0.126337 0)
(-0.0224826 0.114541 0)
(-0.0224075 0.102772 0)
(-0.0222965 0.09146 0)
(-0.0222085 0.080819 0)
(-0.0221806 0.0709082 0)
(-0.0222256 0.0616756 0)
(-0.0223385 0.0530004 0)
(-0.0225043 0.0447311 0)
(-0.0227029 0.0367129 0)
(-0.0229135 0.0288033 0)
(-0.0231158 0.0208798 0)
(-0.0232914 0.0128423 0)
(-0.0234235 0.00461379 0)
(-0.0234963 -0.00386196 0)
(-0.0234955 -0.0126201 0)
(-0.0234078 -0.0216768 0)
(-0.0232216 -0.0310338 0)
(-0.0229281 -0.0406809 0)
(-0.0225246 -0.0506046 0)
(-0.0220191 -0.060804 0)
(-0.0214384 -0.0713198 0)
(-0.020841 -0.0822909 0)
(-0.0203346 -0.0940576 0)
(-0.0200927 -0.107331 0)
(-0.0203326 -0.123367 0)
(-0.0211715 -0.143863 0)
(-0.0223328 -0.170224 0)
(-0.0229491 -0.202752 0)
(-0.0215998 -0.238403 0)
(-0.0181116 -0.258703 0)
(-0.00603058 -0.236155 0)
(-0.000161995 0.0948297 0)
(-0.00300348 0.129384 0)
(-0.00627403 0.143518 0)
(-0.00943529 0.153027 0)
(-0.0111188 0.156454 0)
(-0.0125473 0.154673 0)
(-0.0132881 0.147846 0)
(-0.0136602 0.137949 0)
(-0.0138685 0.126538 0)
(-0.0139232 0.114581 0)
(-0.0139164 0.102743 0)
(-0.0139084 0.0914268 0)
(-0.0139327 0.0808233 0)
(-0.0140077 0.0709695 0)
(-0.0141358 0.0617958 0)
(-0.0143094 0.05317 0)
(-0.0145162 0.0449352 0)
(-0.0147425 0.0369346 0)
(-0.0149755 0.0290262 0)
(-0.0152036 0.0210888 0)
(-0.015417 0.0130237 0)
(-0.0156062 0.00475491 0)
(-0.0157628 -0.0037731 0)
(-0.0158773 -0.0125955 0)
(-0.0159402 -0.0217282 0)
(-0.0159412 -0.0311716 0)
(-0.0158708 -0.0409127 0)
(-0.0157225 -0.0509318 0)
(-0.0154965 -0.0612157 0)
(-0.0152077 -0.0717833 0)
(-0.0148975 -0.0827363 0)
(-0.0146518 -0.0943572 0)
(-0.0146234 -0.10729 0)
(-0.0150343 -0.122781 0)
(-0.0160612 -0.142731 0)
(-0.0175158 -0.168984 0)
(-0.0187371 -0.202363 0)
(-0.018357 -0.240497 0)
(-0.0161438 -0.265315 0)
(-0.0052919 -0.248389 0)
(0.00116225 0.0950283 0)
(-0.000169308 0.131861 0)
(-0.00201828 0.145995 0)
(-0.00377472 0.154723 0)
(-0.00455791 0.157649 0)
(-0.00523455 0.15541 0)
(-0.00548202 0.14831 0)
(-0.0056012 0.13822 0)
(-0.00568207 0.126671 0)
(-0.00571249 0.114641 0)
(-0.00574212 0.102782 0)
(-0.00579759 0.0914807 0)
(-0.00588968 0.0809124 0)
(-0.00602105 0.0711004 0)
(-0.0061871 0.0619653 0)
(-0.00637984 0.0533699 0)
(-0.006591 0.0451555 0)
(-0.0068138 0.0371659 0)
(-0.00704337 0.0292605 0)
(-0.00727662 0.0213195 0)
(-0.0075116 0.0132452 0)
(-0.0077466 0.0049616 0)
(-0.00797978 -0.00358698 0)
(-0.00820731 -0.0124372 0)
(-0.00842365 -0.0216064 0)
(-0.00862111 -0.0310959 0)
(-0.00879053 -0.0408923 0)
(-0.008923 -0.0509728 0)
(-0.00901321 -0.0613156 0)
(-0.00906626 -0.0719223 0)
(-0.00910864 -0.0828624 0)
(-0.00920636 -0.0943651 0)
(-0.0094903 -0.107 0)
(-0.0101738 -0.121967 0)
(-0.0114756 -0.141297 0)
(-0.0132973 -0.167298 0)
(-0.0151219 -0.201271 0)
(-0.0156125 -0.241432 0)
(-0.0144172 -0.270654 0)
(-0.00461919 -0.259054 0)
(0.0020444 0.0937298 0)
(0.00251416 0.132687 0)
(0.00209339 0.147088 0)
(0.00162976 0.155362 0)
(0.00171496 0.158031 0)
(0.00178425 0.155545 0)
(0.00199598 0.148386 0)
(0.00213539 0.138273 0)
(0.00220263 0.126714 0)
(0.00222717 0.11469 0)
(0.00219863 0.102852 0)
(0.00212084 0.0915794 0)
(0.00200357 0.0810422 0)
(0.00185705 0.071258 0)
(0.00169089 0.0621446 0)
(0.00151231 0.053565 0)
(0.001325 0.0453621 0)
(0.00112902 0.0373821 0)
(0.000921583 0.0294863 0)
(0.000697957 0.0215563 0)
(0.000452491 0.013495 0)
(0.00017963 0.00522591 0)
(-0.000125214 -0.00330792 0)
(-0.000464 -0.0121453 0)
(-0.000835782 -0.0213068 0)
(-0.0012364 -0.0307961 0)
(-0.0016582 -0.0406016 0)
(-0.0020914 -0.0507004 0)
(-0.00252672 -0.0610658 0)
(-0.00296132 -0.0716861 0)
(-0.00340871 -0.0826044 0)
(-0.00391623 -0.0940008 0)
(-0.0045919 -0.106369 0)
(-0.00563269 -0.120839 0)
(-0.00728372 -0.139513 0)
(-0.00954296 -0.165137 0)
(-0.0119764 -0.199555 0)
(-0.0132851 -0.241542 0)
(-0.0131802 -0.275122 0)
(-0.00409376 -0.268864 0)
(0.00298445 0.0906717 0)
(0.00513812 0.131913 0)
(0.00606163 0.146906 0)
(0.00677953 0.155001 0)
(0.00773728 0.157545 0)
(0.00850239 0.155105 0)
(0.0091747 0.148118 0)
(0.00960348 0.138103 0)
(0.00984925 0.126639 0)
(0.00996588 0.114691 0)
(0.00997899 0.102911 0)
(0.00992012 0.0916816 0)
(0.0098173 0.0811728 0)
(0.00969156 0.0714056 0)
(0.00955647 0.0623016 0)
(0.00941813 0.0537282 0)
(0.0092758 0.0455329 0)
(0.00912335 0.0375654 0)
(0.00895092 0.0296897 0)
(0.00874659 0.0217886 0)
(0.00849763 0.0137654 0)
(0.00819178 0.00554266 0)
(0.00781829 -0.00293843 0)
(0.0073693 -0.0117197 0)
(0.00684061 -0.020826 0)
(0.00623236 -0.0302647 0)
(0.00554967 -0.0400279 0)
(0.00480162 -0.0500948 0)
(0.00399934 -0.0604371 0)
(0.00315172 -0.0710348 0)
(0.00225676 -0.0819098 0)
(0.00128539 -0.0931987 0)
(0.000153276 -0.105321 0)
(-0.00131641 -0.11932 0)
(-0.00338216 -0.137318 0)
(-0.00612893 -0.162451 0)
(-0.00918503 -0.197153 0)
(-0.011202 -0.240688 0)
(-0.0121344 -0.278651 0)
(-0.0036064 -0.277642 0)
(0.00394222 0.0857265 0)
(0.00770629 0.129556 0)
(0.00988888 0.145492 0)
(0.0116885 0.153686 0)
(0.0134939 0.156288 0)
(0.0149353 0.154086 0)
(0.0160952 0.147461 0)
(0.0168471 0.13768 0)
(0.0173077 0.126411 0)
(0.0175594 0.114605 0)
(0.0176588 0.10292 0)
(0.0176609 0.0917478 0)
(0.0176104 0.0812685 0)
(0.0175377 0.0715124 0)
(0.01746 0.0624106 0)
(0.0173827 0.0538389 0)
(0.0173011 0.0456517 0)
(0.0172038 0.0377036 0)
(0.0170748 0.0298616 0)
(0.0168955 0.0220099 0)
(0.0166468 0.0140519 0)
(0.0163103 0.00590907 0)
(0.0158692 -0.00247974 0)
(0.0153101 -0.0111597 0)
(0.0146233 -0.0201606 0)
(0.0138045 -0.0294951 0)
(0.0128554 -0.0391602 0)
(0.0117827 -0.0491401 0)
(0.0105979 -0.0594075 0)
(0.00931402 -0.0699382 0)
(0.00793878 -0.0807383 0)
(0.0064594 -0.091906 0)
(0.00481439 -0.103791 0)
(0.002853 -0.117343 0)
(0.000308938 -0.134663 0)
(-0.00297511 -0.159219 0)
(-0.00669893 -0.194111 0)
(-0.00931277 -0.23901 0)
(-0.0113756 -0.281552 0)
(-0.00319519 -0.285845 0)
(0.0048254 0.0791775 0)
(0.0101662 0.125689 0)
(0.0135731 0.142916 0)
(0.0163751 0.151459 0)
(0.0190748 0.154249 0)
(0.0210182 0.152481 0)
(0.0227358 0.146405 0)
(0.0238814 0.136969 0)
(0.0246068 0.125984 0)
(0.0250465 0.114384 0)
(0.0252829 0.102833 0)
(0.0253914 0.0917379 0)
(0.0254317 0.0812952 0)
(0.0254432 0.0715508 0)
(0.0254471 0.0624501 0)
(0.0254485 0.053881 0)
(0.0254404 0.045707 0)
(0.0254067 0.0377887 0)
(0.0253264 0.0299968 0)
(0.0251752 0.0222172 0)
(0.0249284 0.014353 0)
(0.0245616 0.0063245 0)
(0.0240527 -0.00193207 0)
(0.023383 -0.0104657 0)
(0.0225376 -0.0193106 0)
(0.0215068 -0.0284854 0)
(0.0202876 -0.0379931 0)
(0.0188837 -0.0478247 0)
(0.0173054 -0.0579581 0)
(0.0155681 -0.0683683 0)
(0.0136854 -0.079053 0)
(0.011659 -0.0900802 0)
(0.00945373 -0.101727 0)
(0.00694621 -0.114846 0)
(0.0038688 -0.131485 0)
(8.74226e-06 -0.155392 0)
(-0.00443815 -0.190391 0)
(-0.00754593 -0.236669 0)
(-0.01094 -0.283499 0)
(-0.00253889 -0.293464 0)
(0.00558382 0.0710929 0)
(0.0124667 0.120345 0)
(0.0170537 0.139209 0)
(0.0208119 0.148366 0)
(0.0242128 0.151638 0)
(0.0269123 0.150222 0)
(0.0291101 0.144824 0)
(0.030715 0.135909 0)
(0.0317644 0.125302 0)
(0.0324494 0.113973 0)
(0.0328799 0.1026 0)
(0.0331463 0.0916084 0)
(0.0333201 0.0812174 0)
(0.0334494 0.0714934 0)
(0.0335597 0.0623999 0)
(0.0336576 0.0538403 0)
(0.0337346 0.0456894 0)
(0.0337719 0.0378151 0)
(0.0337442 0.0300924 0)
(0.0336228 0.0224089 0)
(0.033378 0.0146681 0)
(0.0329807 0.00678891 0)
(0.0324032 -0.00129494 0)
(0.0316225 -0.0096368 0)
(0.0306182 -0.0182748 0)
(0.0293737 -0.0272341 0)
(0.0278818 -0.036525 0)
(0.0261421 -0.0461453 0)
(0.0241617 -0.0560793 0)
(0.0219555 -0.0663058 0)
(0.0195415 -0.0768205 0)
(0.0169341 -0.0876752 0)
(0.014129 -0.0990838 0)
(0.0110234 -0.111779 0)
(0.0073631 -0.127733 0)
(0.00288606 -0.150925 0)
(-0.0023526 -0.185967 0)
(-0.00592102 -0.233679 0)
(-0.0106386 -0.284548 0)
(-0.00197256 -0.300741 0)
(0.00615313 0.0615861 0)
(0.0145167 0.1136 0)
(0.0202511 0.134438 0)
(0.0249325 0.14445 0)
(0.0290245 0.148299 0)
(0.0324375 0.147418 0)
(0.0351708 0.142695 0)
(0.0372982 0.134434 0)
(0.03876 0.1243 0)
(0.0397673 0.113308 0)
(0.0404605 0.102162 0)
(0.0409454 0.09131 0)
(0.0413032 0.0809956 0)
(0.0415899 0.0713096 0)
(0.0418361 0.062238 0)
(0.0420511 0.0537021 0)
(0.0422268 0.0455894 0)
(0.0423431 0.0377772 0)
(0.0423723 0.0301455 0)
(0.0422823 0.0225844 0)
(0.0420396 0.0149977 0)
(0.0416108 0.00730326 0)
(0.0409638 -0.000568272 0)
(0.040071 -0.00867255 0)
(0.0389067 -0.0170519 0)
(0.0374477 -0.0257378 0)
(0.0356813 -0.0347492 0)
(0.033601 -0.0440925 0)
(0.0312089 -0.0537599 0)
(0.0285193 -0.0637376 0)
(0.0255556 -0.0740233 0)
(0.0223429 -0.0846563 0)
(0.018895 -0.0958074 0)
(0.0151452 -0.108094 0)
(0.010861 -0.12336 0)
(0.00572687 -0.145773 0)
(-0.00039064 -0.180794 0)
(-0.00442318 -0.230022 0)
(-0.0104868 -0.284924 0)
(-0.00110412 -0.307681 0)
(0.00642896 0.0508895 0)
(0.0162004 0.105462 0)
(0.0230281 0.128581 0)
(0.0286149 0.139715 0)
(0.0334203 0.144249 0)
(0.0374912 0.144034 0)
(0.0408735 0.139958 0)
(0.0435668 0.132453 0)
(0.0455345 0.122891 0)
(0.0469663 0.112311 0)
(0.0480113 0.10145 0)
(0.0487903 0.0907824 0)
(0.049395 0.0805802 0)
(0.049889 0.0709619 0)
(0.0503089 0.0619373 0)
(0.050668 0.0534474 0)
(0.0509607 0.0453953 0)
(0.0511677 0.0376684 0)
(0.0512604 0.0301533 0)
(0.051205 0.0227432 0)
(0.0509652 0.0153429 0)
(0.0505037 0.00786946 0)
(0.0497867 0.000251085 0)
(0.0487808 -0.00757078 0)
(0.0474541 -0.0156405 0)
(0.0457784 -0.0239954 0)
(0.0437346 -0.0326635 0)
(0.0413097 -0.0416593 0)
(0.0384993 -0.0509861 0)
(0.0353155 -0.0606427 0)
(0.0317827 -0.070636 0)
(0.0279339 -0.0810003 0)
(0.0238044 -0.0918628 0)
(0.0193678 -0.103741 0)
(0.0144122 -0.118334 0)
(0.00857761 -0.139944 0)
(0.00152296 -0.174898 0)
(-0.00286577 -0.225649 0)
(-0.0103022 -0.284712 0)
(-0.000290811 -0.31444 0)
(0.00623061 0.0393349 0)
(0.017303 0.0961101 0)
(0.0252 0.121688 0)
(0.0317051 0.134163 0)
(0.0372552 0.139498 0)
(0.0420117 0.139964 0)
(0.0460804 0.136593 0)
(0.0494256 0.129876 0)
(0.0520016 0.120962 0)
(0.0539702 0.110877 0)
(0.0554801 0.100371 0)
(0.0566525 0.0899478 0)
(0.0575867 0.0799097 0)
(0.058354 0.0704025 0)
(0.0589985 0.0614619 0)
(0.0595396 0.0530509 0)
(0.0599763 0.0450898 0)
(0.060292 0.0374781 0)
(0.0604595 0.0301098 0)
(0.0604451 0.0228826 0)
(0.0602112 0.015703 0)
(0.0597183 0.00848835 0)
(0.0589302 0.00116469 0)
(0.0578089 -0.00632909 0)
(0.056317 -0.0140376 0)
(0.0544216 -0.0220037 0)
(0.0520972 -0.0302641 0)
(0.0493225 -0.0388411 0)
(0.0460862 -0.0477506 0)
(0.0423962 -0.057007 0)
(0.0382766 -0.0666308 0)
(0.033765 -0.0766638 0)
(0.0289148 -0.0872046 0)
(0.0237339 -0.0986665 0)
(0.0180532 -0.1126 0)
(0.0114554 -0.133385 0)
(0.00343852 -0.168259 0)
(-0.0011909 -0.220591 0)
(-0.0105485 -0.283335 0)
(0.000731278 -0.320981 0)
(0.00527291 0.0277228 0)
(0.0175431 0.0854633 0)
(0.026521 0.113642 0)
(0.0339976 0.127731 0)
(0.0403596 0.134024 0)
(0.0458486 0.135192 0)
(0.0506492 0.132525 0)
(0.0547411 0.126605 0)
(0.0580512 0.118401 0)
(0.0606846 0.108883 0)
(0.0627843 0.0988097 0)
(0.0644688 0.0887062 0)
(0.0658371 0.0788996 0)
(0.0669653 0.0695635 0)
(0.0679042 0.06076 0)
(0.0686808 0.052475 0)
(0.0693006 0.0446468 0)
(0.0697526 0.0371887 0)
(0.0700137 0.0300042 0)
(0.0700521 0.0229965 0)
(0.0698308 0.0160754 0)
(0.0693102 0.0091592 0)
(0.0684513 0.00217184 0)
(0.0672134 -0.00494518 0)
(0.0655527 -0.0122391 0)
(0.063434 -0.0197586 0)
(0.0608242 -0.0275457 0)
(0.0576934 -0.0356302 0)
(0.0540232 -0.0440426 0)
(0.0498158 -0.0528158 0)
(0.0450931 -0.061988 0)
(0.0398954 -0.0716146 0)
(0.0342806 -0.0817837 0)
(0.0283025 -0.0928158 0)
(0.0218337 -0.106107 0)
(0.0144107 -0.12606 0)
(0.00545474 -0.160783 0)
(0.000725075 -0.214728 0)
(-0.0108468 -0.281616 0)
(0.00192394 -0.327359 0)
(0.00322215 0.016839 0)
(0.016602 0.0740799 0)
(0.0267735 0.104495 0)
(0.0352794 0.120364 0)
(0.0425275 0.127756 0)
(0.0488085 0.129649 0)
(0.0544063 0.127662 0)
(0.0593435 0.122516 0)
(0.0635226 0.115067 0)
(0.0669776 0.106193 0)
(0.069815 0.0966367 0)
(0.0721483 0.0869377 0)
(0.0740737 0.0774457 0)
(0.0756695 0.0683587 0)
(0.076992 0.0597628 0)
(0.0780754 0.0516664 0)
(0.0789335 0.044027 0)
(0.0795631 0.0367726 0)
(0.0799472 0.0298178 0)
(0.0800585 0.0230733 0)
(0.0798628 0.0164538 0)
(0.0793221 0.00987875 0)
(0.0783954 0.00327361 0)
(0.0770403 -0.00341567 0)
(0.0752089 -0.010241 0)
(0.0728628 -0.017255 0)
(0.0699623 -0.0245014 0)