/*--------------------------------*- C++ -*----------------------------------*\
  =========                 |
  \\      /  F ield         | OpenFOAM: The Open Source CFD Toolbox
   \\    /   O peration     | Website:  https://openfoam.org
    \\  /    A nd           | Version:  12
     \\/     M anipulation  |
\*---------------------------------------------------------------------------*/
FoamFile
{
    format      ascii;
    class       volScalarField;
    location    "6.5";
    object      epsilon;
}
// * * * * * * * * * * * * * * * * * * * * * * * * * * * * * * * * * * * * * //

dimensions      [0 2 -3 0 0 0 0];

internalField   nonuniform List<scalar> 
1600
(
2.42464e-05
8.50274e-05
0.000167033
0.000171385
0.000158916
0.000163923
0.000211574
0.000354685
0.000524816
0.000728022
0.0011403
0.00145192
0.00161065
0.00177939
0.00204719
0.00240026
0.00274021
0.00312142
0.00350037
0.00392388
0.00436791
0.00486824
0.00541814
0.00605338
0.00679895
0.00748011
0.00816743
0.00876047
0.00927306
0.00955323
0.00966473
0.00947466
0.00867926
0.00733124
0.00547505
0.00318895
0.00152159
0.000626818
0.000196233
4.0148e-05
0.000117683
0.000148974
0.000186523
0.000180711
0.000177953
0.00021381
0.000371288
0.000784979
0.00139624
0.00225743
0.00401367
0.00495445
0.0050828
0.00479695
0.0044885
0.004341
0.00422837
0.00418929
0.00418381
0.00427021
0.00439764
0.00459021
0.00480353
0.0050687
0.00538963
0.00578524
0.00622852
0.00674215
0.00725878
0.00770939
0.00791866
0.00795857
0.0074439
0.00643972
0.00476873
0.00272669
0.00111962
0.000478583
0.000169948
6.91189e-05
0.000356875
0.000382306
0.000394917
0.000380166
0.000432433
0.000716832
0.00154333
0.00314458
0.00512947
0.00598206
0.00593556
0.00506334
0.00463657
0.00409503
0.00371323
0.00343745
0.00321911
0.00307781
0.0029963
0.00296187
0.00295327
0.00298963
0.00308597
0.00322223
0.00339804
0.00361045
0.0038668
0.00417252
0.00453094
0.00495752
0.00545885
0.00593325
0.00615779
0.0061245
0.00532618
0.00359192
0.00114372
0.000306349
0.000107188
5.70148e-05
0.000828814
0.000755231
0.000757498
0.000817666
0.00119346
0.00230507
0.00434899
0.00588186
0.00626947
0.00572489
0.0049869
0.00388105
0.00327811
0.00279731
0.00256285
0.00235234
0.00224622
0.00218318
0.00215835
0.00215415
0.00218825
0.00224221
0.00231924
0.00241502
0.00253326
0.00267513
0.00284721
0.00305367
0.00330015
0.00359065
0.00392724
0.00432037
0.00482543
0.00537708
0.00560034
0.00516574
0.00265146
0.000454784
9.17964e-05
4.07091e-05
0.00158306
0.00129655
0.00138304
0.00174481
0.00277352
0.00459391
0.00583189
0.00609615
0.00561513
0.00430747
0.00321751
0.0026588
0.00227848
0.00203744
0.00191015
0.00183224
0.00180184
0.00179413
0.00181229
0.00184805
0.00189505
0.00195011
0.00201523
0.00209189
0.00218453
0.00229785
0.00243909
0.0026143
0.00282638
0.00307679
0.00336393
0.00368473
0.00405013
0.00452763
0.00523402
0.00556873
0.00499096
0.00144638
0.00018075
4.9144e-05
0.00267132
0.00206482
0.00234146
0.00307147
0.00445013
0.00552359
0.00579001
0.0054061
0.00391608
0.00281623
0.00227053
0.00194563
0.0017451
0.00164747
0.00160436
0.00159065
0.00159319
0.00161962
0.00164892
0.00168601
0.00172658
0.00177436
0.00183145
0.00190161
0.00198902
0.00209893
0.0022369
0.00240822
0.00261741
0.00286622
0.00315227
0.00347442
0.00380764
0.00417005
0.00462155
0.0052219
0.00547866
0.00384354
0.00055944
9.60268e-05
0.00406498
0.00305177
0.00348636
0.00434184
0.00520788
0.00547435
0.0052023
0.00380954
0.00260258
0.00202941
0.00173471
0.00156126
0.00147915
0.00144541
0.00143489
0.00143383
0.00144411
0.00145651
0.00146949
0.00148647
0.00150817
0.00154013
0.00158516
0.00164847
0.00173489
0.00185067
0.00200208
0.00219539
0.00243524
0.00272214
0.00304907
0.00339965
0.00376206
0.00410218
0.00446192
0.00489143
0.00521215
0.00508943
0.0014266
0.000219742
0.00556284
0.00413295
0.00454122
0.00506789
0.00527091
0.00505716
0.00390503
0.00255718
0.00190807
0.0015969
0.00143497
0.00135377
0.00131649
0.00129913
0.00128789
0.00127649
0.00126494
0.00125116
0.00124067
0.00123611
0.0012358
0.00125188
0.00128373
0.00133678
0.00141634
0.001529
0.00168302
0.00188791
0.00215338
0.00248601
0.00288308
0.00332413
0.00376712
0.00417559
0.00448363
0.00481831
0.00515584
0.00527184
0.00311287
0.000553181
0.00685918
0.00512348
0.00531674
0.00539319
0.00505302
0.00413524
0.00271177
0.00189268
0.00152296
0.00134559
0.00125657
0.00121214
0.00118517
0.00115952
0.00112999
0.00109618
0.00106031
0.00102558
0.000996233
0.000977536
0.000969949
0.000969861
0.000993496
0.00103565
0.0011042
0.00120468
0.00134653
0.00154184
0.00180593
0.00215526
0.00260145
0.00313874
0.00372595
0.00427761
0.00472438
0.00495287
0.00523798
0.00538408
0.00471111
0.0014846
0.00781169
0.00586024
0.00577409
0.00534879
0.00451082
0.00312059
0.00201301
0.00151757
0.00129322
0.00118544
0.00112981
0.00109279
0.0010558
0.0010122
0.000962632
0.000910462
0.000859687
0.000814499
0.000777715
0.000752678
0.000740943
0.000737928
0.000752881
0.000786974
0.000843125
0.000927625
0.00104913
0.0012206
0.00146023
0.00179193
0.00224247
0.00283086
0.00354438
0.0043036
0.00495837
0.00527598
0.00545066
0.0055477
0.00526203
0.00263617
0.00849014
0.00633892
0.00598166
0.00514402
0.0037743
0.00234428
0.00161139
0.00128878
0.00114115
0.00106881
0.00102207
0.00097725
0.00092486
0.000865055
0.000802052
0.000740714
0.000685065
0.000638113
0.000601238
0.000576189
0.000564195
0.000560617
0.00057062
0.000598007
0.000643259
0.000712242
0.00081252
0.000956259
0.00116188
0.00145649
0.00187678
0.00246406
0.0032443
0.00418137
0.00510804
0.00562716
0.00582737
0.00588782
0.00565497
0.00375933
0.00886822
0.00655735
0.00593296
0.00472372
0.00307098
0.00187988
0.0013616
0.00113501
0.00102949
0.000971882
0.000921388
0.000864706
0.000799356
0.000729627
0.000661124
0.000598426
0.000544414
0.000500538
0.000467047
0.000444525
0.000433668
0.000430285
0.000437438
0.000459309
0.000495704
0.000551463
0.000633017
0.000750965
0.000922245
0.00117377
0.00154656
0.00209721
0.00288708
0.00394084
0.00515535
0.00599068
0.00624912
0.0062735
0.00601556
0.00467265
0.00885813
0.00654498
0.00577674
0.0042414
0.00250436
0.0015827
0.00119343
0.00102239
0.000940267
0.000885142
0.000826767
0.000759849
0.000686606
0.000613208
0.000545057
0.000485546
0.000436153
0.000397079
0.000367829
0.000348245
0.000338747
0.00033572
0.000341023
0.000358528
0.00038801
0.000433288
0.000499726
0.000596192
0.000737344
0.000947712
0.00126787
0.00176127
0.00251434
0.00361057
0.00505146
0.00634467
0.00678433
0.00679661
0.00634953
0.00553359
0.00874712
0.00644858
0.0054728
0.0037495
0.00211966
0.00138123
0.00107214
0.000934015
0.000864822
0.00080656
0.00074067
0.00066703
0.000590635
0.000517946
0.000453346
0.000398862
0.000354802
0.000320562
0.000295227
0.000278225
0.000269912
0.000267215
0.00027121
0.000285337
0.000309524
0.000346771
0.000401539
0.000481159
0.000597977
0.000773418
0.00104514
0.00147762
0.0021712
0.00324835
0.00477405
0.00652672
0.00733572
0.00738871
0.00681973
0.00633184
0.00848255
0.00622883
0.00511369
0.00332097
0.00185775
0.00123712
0.000979666
0.000863602
0.000799533
0.000736803
0.000665413
0.000588448
0.000512227
0.000442615
0.000382765
0.000333539
0.000294435
0.000264394
0.000242306
0.000227378
0.000220002
0.000217568
0.000220606
0.000232124
0.000252241
0.000283364
0.000329225
0.000395893
0.000493611
0.000640502
0.000869888
0.00124343
0.00186938
0.00290884
0.00451036
0.00658747
0.00790878
0.00805898
0.00734119
0.00711516
0.00802017
0.00595451
0.00474707
0.00297626
0.00167132
0.00113082
0.000907804
0.000806253
0.000743362
0.000676764
0.000602082
0.000524314
0.000450143
0.000384501
0.000329434
0.000284948
0.000250037
0.000223418
0.00020391
0.000190608
0.000183935
0.000181696
0.000184024
0.000193509
0.000210461
0.000236872
0.000275938
0.000332786
0.000415976
0.000540696
0.000735547
0.00105632
0.00160999
0.00258021
0.00419944
0.0065415
0.00844263
0.00881156
0.00794884
0.00787761
0.00748515
0.00565428
0.00439756
0.00270824
0.00153605
0.00105099
0.000851411
0.00075927
0.000695958
0.000626743
0.000550599
0.000473607
0.000402281
0.000340625
0.000289819
0.000249294
0.000217762
0.000193838
0.000176329
0.00016434
0.000158145
0.000156033
0.000157833
0.00016572
0.000180163
0.000202877
0.000236664
0.000285965
0.000358066
0.000465764
0.000633338
0.000909986
0.00139697
0.00228828
0.003877
0.00637317
0.00891949
0.00962669
0.00860752
0.00863748
0.00685009
0.00536998
0.00408663
0.00250608
0.00143881
0.000991661
0.000807393
0.000721091
0.000657011
0.000586438
0.000510161
0.00043479
0.000366433
0.000308329
0.000261054
0.000223687
0.00019479
0.000172944
0.000156971
0.000145996
0.000140113
0.000138064
0.00013947
0.000146097
0.000158535
0.000178302
0.000207919
0.000251343
0.000314943
0.0004097
0.000556211
0.000797022
0.00122459
0.00203364
0.00356532
0.00616075
0.00930933
0.0104914
0.00937741
0.00939318
0.00622645
0.00509243
0.00381773
0.00235899
0.00137136
0.0009473
0.000773329
0.000690426
0.000625857
0.000555078
0.000479613
0.000406195
0.000340568
0.000285424
0.000240941
0.000205996
0.000179089
0.000158804
0.000143986
0.000133778
0.000128072
0.000126015
0.000127111
0.000132748
0.000143589
0.000160986
0.000187267
0.000226034
0.000283004
0.000367881
0.000498338
0.000710968
0.00108834
0.00181851
0.0032745
0.00592389
0.00960627
0.011383
0.0102281
0.0101453
0.00550223
0.00484529
0.003598
0.00225538
0.00132829
0.000918484
0.000747852
0.000666491
0.000601896
0.000531776
0.000457696
0.000386412
0.000323197
0.00027036
0.000227918
0.000194705
0.000169222
0.000150064
0.000136083
0.000126434
0.000120808
0.000118677
0.000119578
0.000124455
0.000133956
0.000149413
0.000173024
0.000208077
0.0002598
0.000337089
0.000455416
0.000646338
0.000982427
0.00164029
0.00301167
0.00569849
0.00979036
0.0122987
0.0111978
0.0108982
0.00491699
0.00463493
0.00342245
0.00218963
0.00130956
0.000897677
0.000730081
0.000648185
0.000583934
0.000515333
0.000443361
0.000374009
0.000312575
0.000261432
0.000220521
0.000188623
0.000164222
0.000145872
0.000132441
0.000123128
0.00011749
0.000115215
0.000116145
0.000120544
0.000129177
0.000143207
0.00016453
0.000196214
0.000243665
0.000315084
0.000424296
0.00059891
0.000902102
0.00149594
0.0027753
0.00545447
0.00991307
0.0132248
0.0122797
0.0116435
0.00442013
0.00444054
0.00330946
0.00215238
0.00131501
0.000898229
0.00071808
0.000635306
0.000571642
0.000505086
0.000434997
0.000368152
0.00030911
0.000259612
0.000219731
0.000188431
0.000164283
0.000146031
0.000132636
0.0001233
0.000117514
0.00011498
0.000115676
0.000119557
0.000127632
0.000140891
0.000160763
0.000190328
0.000234384
0.000300666
0.000402838
0.00056556
0.000843378
0.00138288
0.00257135
0.00521152
0.00996966
0.0141617
0.0134848
0.0123876
0.00398082
0.00427835
0.00323845
0.00215599
0.00133501
0.000906522
0.000718196
0.000626523
0.000563264
0.000499125
0.00043327
0.000368828
0.000310645
0.000261595
0.000221931
0.000190722
0.000166648
0.000148461
0.000135106
0.000125801
0.000120034
0.000117576
0.00011816
0.000121477
0.000128766
0.000141001
0.000159915
0.000188315
0.000230462
0.000293637
0.000391091
0.000545104
0.000803053
0.00129794
0.0023993
0.00497516
0.00998873
0.015127
0.0147947
0.0131174
0.00358131
0.00415055
0.00322018
0.00217777
0.00137805
0.00092746
0.000723092
0.000625691
0.000559862
0.00049889
0.000434977
0.000372321
0.000315475
0.000267151
0.000227797
0.000196658
0.000172577
0.00015434
0.00014092
0.000131537
0.000125666
0.000123099
0.000123632
0.000126645
0.000133492
0.000145212
0.000163101
0.000189764
0.000229859
0.000291306
0.000386326
0.000535615
0.000781819
0.00123866
0.00226098
0.0047493
0.00997335
0.0160923
0.0162227
0.0138373
0.00320777
0.00405141
0.00323296
0.00222952
0.00144575
0.000969544
0.000736849
0.000628694
0.000560798
0.00050065
0.000439638
0.000380025
0.000325276
0.00027782
0.000238573
0.000207187
0.000182718
0.00016408
0.000150296
0.0001406
0.000134459
0.00013171
0.00013223
0.000135102
0.000141728
0.000153235
0.000170726
0.000196678
0.000235331
0.000294061
0.000385886
0.000532886
0.000773571
0.00120418
0.00215611
0.00454492
0.00990634
0.0170626
0.0177683
0.0145336
0.00285363
0.00397978
0.00327074
0.00231388
0.00153656
0.00103247
0.000765536
0.000637964
0.000564679
0.000505143
0.000447829
0.000391363
0.000338683
0.000292239
0.000253198
0.000221547
0.000196605
0.000177453
0.000163204
0.000153125
0.000146683
0.000143767
0.000144314
0.000147174
0.000153778
0.000165317
0.000182747
0.00020844
0.000246536
0.000304462
0.000395128
0.000539553
0.000773269
0.00118989
0.00208012
0.00437076
0.00983179
0.0180026
0.0194458
0.0152077
0.00250883
0.00391877
0.00334037
0.00242908
0.00165676
0.00112038
0.000813309
0.000657909
0.000573719
0.000513271
0.000458375
0.000405118
0.000354928
0.000309923
0.00027141
0.000239686
0.000214361
0.000194724
0.000180011
0.00016956
0.000162837
0.000159819
0.000160439
0.000163404
0.000170181
0.000181971
0.000199642
0.000225499
0.000263615
0.000321416
0.000412086
0.000557542
0.000791309
0.00118861
0.00203925
0.00422502
0.00975977
0.0189209
0.0212261
0.0158462
0.00217171
0.00386447
0.0034363
0.0025578
0.0018011
0.00123673
0.000885614
0.000695225
0.000592208
0.000525911
0.000471455
0.000420854
0.000373357
0.000330268
0.000292788
0.000261411
0.00023601
0.000216099
0.000201073
0.000190375
0.00018347
0.000180501
0.000181253
0.000184441
0.000191588
0.00020383
0.000222011
0.000248427
0.000287154
0.000345717
0.000437504
0.000585123
0.00082174
0.00121152
0.00202451
0.00410201
0.00965304
0.019826
0.0230939
0.0164531
0.0018326
0.00377155
0.00350629
0.00272891
0.00197223
0.00138314
0.000986804
0.00075429
0.00062473
0.000546203
0.000488536
0.000438936
0.000393723
0.000352787
0.000316839
0.000286353
0.000261366
0.000241589
0.000226572
0.000215901
0.000209007
0.000206356
0.00020732
0.000210864
0.000218593
0.000231477
0.000250418
0.00027778
0.000317722
0.000377995
0.000472171
0.000623701
0.000866132
0.00125381
0.00202884
0.00401123
0.00952863
0.0206861
0.0249941
0.017015
0.00152789
0.00365071
0.0035385
0.00291683
0.00216756
0.00156349
0.00112555
0.000845468
0.00067966
0.000580232
0.000513321
0.000461213
0.000416632
0.000377373
0.000343126
0.000313996
0.000289977
0.000270874
0.000256336
0.000246118
0.000239528
0.000237593
0.000238876
0.000242937
0.000251494
0.000265222
0.000285191
0.000313935
0.00035577
0.000418843
0.000516823
0.000674049
0.000924781
0.00132092
0.0020715
0.00396774
0.00939962
0.0214581
0.0268501
0.0175426
0.00126925
0.00340498
0.00356546
0.00310111
0.00236965
0.00176693
0.00130137
0.000976575
0.000768242
0.00063837
0.000553841
0.000493264
0.000445599
0.000405987
0.000372545
0.000344567
0.000321688
0.00030362
0.000289953
0.000280633
0.000274649
0.000273888
0.000275615
0.000280396
0.000290079
0.000304912
0.000326268
0.000356992
0.000401592
0.000468855
0.000572354
0.000737631
0.000999188
0.00141043
0.00214426
0.00395579
0.00928631
0.0221288
0.0285647
0.0180289
0.00103955
0.00292365
0.00360172
0.00327182
0.00258436
0.00199331
0.00151646
0.00115681
0.00090448
0.000735623
0.000623055
0.00054508
0.000487806
0.000443504
0.000408215
0.000379913
0.000357449
0.000340171
0.00032738
0.00031905
0.000314091
0.000314394
0.000316851
0.000322776
0.000333747
0.000350108
0.000373432
0.0004071
0.000455737
0.000529178
0.000640473
0.000817289
0.001093
0.00152917
0.00226215
0.0040146
0.00923939
0.0226783
0.0300415
0.0184974
0.000830264
0.00223086
0.00353481
0.00333596
0.00278338
0.00222359
0.00176145
0.00138932
0.00110395
0.000894737
0.000745403
0.000639046
0.000561968
0.000504822
0.00046155
0.000428539
0.000403465
0.00038492
0.000371724
0.00036339
0.000359202
0.000359962
0.000363226
0.000370506
0.000383011
0.000401603
0.000427893
0.000466186
0.000520907
0.000603795
0.000726474
0.000921029
0.00121707
0.00169349
0.00244958
0.0041908
0.00929016
0.0232106
0.0311772
0.0189692
0.000718445
0.00158958
0.0032812
0.00327526
0.00298176
0.0024666
0.00203643
0.00167421
0.00137429
0.00113383
0.000946609
0.000803839
0.000696224
0.000615197
0.000554734
0.000509439
0.000475729
0.000451313
0.000434165
0.000423426
0.00041757
0.000418216
0.000421725
0.000429866
0.000444345
0.000466456
0.000497587
0.000543741
0.000608415
0.000707147
0.000848312
0.00107348
0.00140364
0.00195007
0.00277364
0.00458525
0.00965418
0.0238862
0.0318422
0.0193439
0.000733749
0.00123663
0.00270694
0.00309507
0.00299091
0.00270426
0.00235021
0.00203161
0.00174436
0.00149067
0.00127406
0.00109441
0.000948813
0.000833277
0.000742196
0.000671815
0.000617823
0.00057808
0.00054938
0.000530696
0.000518286
0.000516106
0.000519013
0.000527367
0.000544455
0.000573083
0.000613641
0.000675365
0.000759485
0.000889386
0.0010667
0.00135311
0.00175212
0.00243522
0.0034204
0.00547733
0.0106666
0.02498
0.0321124
0.0194743
0.00101771
0.00108188
0.00204843
0.0026827
0.00294999
0.00288785
0.00270831
0.0024649
0.00221915
0.00197872
0.00175036
0.0015426
0.00136016
0.00120431
0.0010785
0.000977856
0.000898333
0.000836797
0.000790557
0.000758839
0.000737918
0.000732462
0.000736834
0.000750293
0.000778271
0.00082444
0.000890788
0.000991771
0.00112538
0.00133013
0.00159595
0.00202528
0.0025888
0.00357233
0.00491599
0.00754004
0.0130333
0.0268857
0.0320964
0.0194546
0.00161111
0.00123403
0.00189709
0.00264582
0.00310376
0.00331429
0.00331953
0.00322761
0.00303697
0.00281485
0.0025835
0.00235569
0.00214341
0.00195357
0.00178811
0.00165075
0.00154072
0.0014565
0.00139849
0.00135992
0.00135129
0.00136091
0.00138916
0.00144748
0.00153432
0.00165923
0.00182057
0.00204373
0.00233739
0.00275486
0.00328429
0.00409027
0.00510194
0.00678732
0.00889218
0.0128268
0.0184313
0.0303157
0.0319722
0.0188515
0.00267214
0.00187557
0.00265904
0.00359927
0.00432494
0.00484997
0.00509309
0.00513869
0.00505021
0.00485555
0.00461656
0.00436911
0.00413332
0.00392677
0.00375567
0.00362736
0.00354023
0.00350715
0.00352156
0.00357104
0.00367814
0.00384466
0.00406885
0.00435598
0.00472964
0.00518009
0.00576119
0.00644567
0.00731023
0.00834388
0.00973149
0.0115349
0.0138227
0.0169628
0.0206536
0.0263677
0.0314336
0.0366321
0.032983
0.0177922
0.00460021
0.00446382
0.00767193
0.0103513
0.0118604
0.0127163
0.0130704
0.0130833
0.0129703
0.0127148
0.0123981
0.0121161
0.0118976
0.0117623
0.0117681
0.0118426
0.0120228
0.0123454
0.0127969
0.0133672
0.0140653
0.0148929
0.0158992
0.0170364
0.0184304
0.0199403
0.0218421
0.0237974
0.0263769
0.0288685
0.0322598
0.0352354
0.0396185
0.0429163
0.0480675
0.050331
0.0490427
0.0430066
0.0334262
0.0155343
0.00311608
0.00484969
0.00631888
0.00787634
0.00927536
0.0105521
0.0115985
0.0124986
0.0131115
0.0135305
0.0137727
0.013887
0.0138705
0.013814
0.0136926
0.013534
0.0133707
0.013192
0.0130301
0.0128695
0.0127426
0.0126232
0.0125531
0.0124904
0.0124922
0.0125134
0.0125785
0.012663
0.0128512
0.0129954
0.0133091
0.0135182
0.0140011
0.0143642
0.0151782
0.0156829
0.0165412
0.0165979
0.0160307
0.0133918
)
;

boundaryField
{
    movingWall
    {
        type            epsilonWallFunction;
        value           nonuniform List<scalar> 
40
(
0.00311608
0.00484969
0.00631888
0.00787634
0.00927536
0.0105521
0.0115985
0.0124986
0.0131115
0.0135305
0.0137727
0.013887
0.0138705
0.013814
0.0136926
0.013534
0.0133707
0.013192
0.0130301
0.0128695
0.0127426
0.0126232
0.0125531
0.0124904
0.0124922
0.0125134
0.0125785
0.012663
0.0128512
0.0129954
0.0133091
0.0135182
0.0140011
0.0143642
0.0151782
0.0156829
0.0165412
0.0165979
0.0160307
0.0133918
)
;
    }
    fixedWalls
    {
        type            epsilonWallFunction;
        value           nonuniform List<scalar> 
120
(
2.42464e-05
0.000117683
0.000356875
0.000828814
0.00158306
0.00267132
0.00406498
0.00556284
0.00685918
0.00781169
0.00849014
0.00886822
0.00885813
0.00874712
0.00848255
0.00802017
0.00748515
0.00685009
0.00622645
0.00550223
0.00491699
0.00442013
0.00398082
0.00358131
0.00320777
0.00285363
0.00250883
0.00217171
0.0018326
0.00152789
0.00126925
0.00103955
0.000830264
0.000718445
0.000733749
0.00101771
0.00161111
0.00267214
0.00460021
0.00311608
4.0148e-05
6.91189e-05
5.70148e-05
4.07091e-05
4.9144e-05
9.60268e-05
0.000219742
0.000553181
0.0014846
0.00263617
0.00375933
0.00467265
0.00553359
0.00633184
0.00711516
0.00787761
0.00863748
0.00939318
0.0101453
0.0108982
0.0116435
0.0123876
0.0131174
0.0138373
0.0145336
0.0152077
0.0158462
0.0164531
0.017015
0.0175426
0.0180289
0.0184974
0.0189692
0.0193439
0.0194743
0.0194546
0.0188515
0.0177922
0.0155343
0.0133918
2.42464e-05
8.50274e-05
0.000167033
0.000171385
0.000158916
0.000163923
0.000211574
0.000354685
0.000524816
0.000728022
0.0011403
0.00145192
0.00161065
0.00177939
0.00204719
0.00240026
0.00274021
0.00312142
0.00350037
0.00392388
0.00436791
0.00486824
0.00541814
0.00605338
0.00679895
0.00748011
0.00816743
0.00876047
0.00927306
0.00955323
0.00966473
0.00947466
0.00867926
0.00733124
0.00547505
0.00318895
0.00152159
0.000626818
0.000196233
4.0148e-05
)
;
    }
    frontAndBack
    {
        type            empty;
    }
}


// ************************************************************************* //
