/*--------------------------------*- C++ -*----------------------------------*\
  =========                 |
  \\      /  F ield         | OpenFOAM: The Open Source CFD Toolbox
   \\    /   O peration     | Website:  https://openfoam.org
    \\  /    A nd           | Version:  12
     \\/     M anipulation  |
\*---------------------------------------------------------------------------*/
FoamFile
{
    format      ascii;
    class       volScalarField;
    location    "6.5";
    object      k;
}
// * * * * * * * * * * * * * * * * * * * * * * * * * * * * * * * * * * * * * //

dimensions      [0 2 -2 0 0 0 0];

internalField   nonuniform List<scalar> 
1600
(
1.89545e-06
6.64578e-06
1.30541e-05
1.33923e-05
1.24174e-05
1.28086e-05
1.65329e-05
2.7718e-05
4.10151e-05
5.69067e-05
8.91235e-05
0.000113461
0.000125855
0.000139038
0.000159964
0.000187553
0.000214116
0.000243906
0.000273516
0.000306612
0.000341308
0.000380406
0.000423375
0.000473015
0.000531273
0.000584496
0.000638201
0.000684537
0.000724588
0.00074648
0.000755192
0.000740343
0.0006782
0.000572884
0.000427854
0.000249225
0.000118928
4.89979e-05
1.53408e-05
3.13888e-06
9.1999e-06
4.34215e-05
8.41686e-05
9.19127e-05
9.062e-05
9.74911e-05
0.000136657
0.000229973
0.000318175
0.000422759
0.00062254
0.000728896
0.000757181
0.000761982
0.000764016
0.000795631
0.000817691
0.000856832
0.000891346
0.000937129
0.000983415
0.00103716
0.001092
0.00114739
0.00119982
0.0012628
0.00132561
0.00139209
0.00144902
0.00148246
0.00149431
0.00145936
0.00135362
0.00116396
0.000910194
0.000548967
0.00024278
9.9607e-05
3.44697e-05
5.40322e-06
2.78993e-05
0.000114572
0.000182931
0.000197998
0.000217985
0.000287078
0.000469477
0.000756339
0.000994454
0.0010826
0.0010334
0.000928884
0.000877741
0.000858962
0.000854467
0.000860266
0.000872351
0.000890243
0.000911179
0.000937418
0.000964835
0.000992003
0.0010211
0.00105259
0.00108715
0.00112423
0.001163
0.0012031
0.00124207
0.00127784
0.00129748
0.00130457
0.00128451
0.00117181
0.000990205
0.000623765
0.000228694
8.2362e-05
3.11011e-05
4.45684e-06
6.47909e-05
0.000238031
0.000333882
0.000375518
0.000470316
0.000689128
0.00100592
0.00117987
0.00120728
0.0010741
0.000976108
0.000893818
0.000859279
0.000845984
0.000842044
0.000845247
0.000854711
0.000866858
0.000881204
0.000897379
0.000914024
0.000934272
0.000954859
0.000977317
0.0010007
0.00102552
0.00105156
0.00107865
0.0011054
0.00112838
0.00114376
0.00115057
0.00115117
0.00112214
0.00105961
0.000881776
0.000377523
9.05189e-05
2.40413e-05
3.18171e-06
0.000123743
0.000419961
0.0005507
0.000641519
0.000826677
0.00110792
0.00125063
0.00126234
0.00113936
0.000965972
0.000877029
0.000835641
0.000818339
0.000812292
0.000811293
0.000821341
0.000834868
0.000851621
0.000869626
0.000888185
0.000906312
0.00092428
0.000941687
0.000959801
0.00097911
0.00100049
0.0010243
0.00105001
0.0010754
0.00109632
0.00110904
0.00111484
0.00111577
0.00109965
0.00106864
0.000992516
0.000741218
0.000207041
3.4812e-05
3.84014e-06
0.000208796
0.000647634
0.000813254
0.000941701
0.00114542
0.00126812
0.00128113
0.00117727
0.000962722
0.000857317
0.000810187
0.00079054
0.000784481
0.000784361
0.000797911
0.000814137
0.00083254
0.000850974
0.000869369
0.000886597
0.000902833
0.000918458
0.000934227
0.000950936
0.000970255
0.00099294
0.00101982
0.00105097
0.00108571
0.00112371
0.00114392
0.00114909
0.00114639
0.00112661
0.00108399
0.00102148
0.000883162
0.000428011
7.72183e-05
7.50232e-06
0.000317705
0.000882654
0.00107694
0.00119011
0.00127625
0.0012906
0.00120413
0.000980608
0.000846343
0.000789924
0.00076757
0.000761044
0.000761485
0.000775953
0.000792671
0.00080915
0.000825762
0.000840331
0.000852507
0.000862351
0.000871311
0.000880919
0.000893399
0.000910048
0.000931452
0.000959017
0.000993515
0.00103522
0.00108318
0.00113456
0.00118838
0.00122627
0.00123471
0.00122656
0.00117891
0.0010812
0.00093884
0.000671665
0.000157224
1.71676e-05
0.000434752
0.00111552
0.00128699
0.00132464
0.00132462
0.00123356
0.00102892
0.000851542
0.000777209
0.000748882
0.000740445
0.000739973
0.000752591
0.000768207
0.000781747
0.000793632
0.00080022
0.000802661
0.000803158
0.000803283
0.000805689
0.000811556
0.000821951
0.000837727
0.000860341
0.000891118
0.000931439
0.000982401
0.00104428
0.00111534
0.00119017
0.00126007
0.00130381
0.00131138
0.00129772
0.00121894
0.0010461
0.000770326
0.000269604
4.32178e-05
0.000536036
0.00130298
0.00143569
0.00141287
0.00129348
0.00110395
0.00088135
0.000776539
0.000735567
0.000722536
0.000720525
0.00072895
0.000742496
0.000751195
0.000754339
0.000754196
0.000746363
0.000739533
0.000732812
0.000729166
0.000727979
0.000730703
0.000739607
0.000754498
0.000777043
0.000808455
0.000850514
0.000905171
0.000974384
0.00105913
0.0011574
0.00126084
0.00134599
0.00138451
0.00138674
0.00134245
0.00120071
0.000927945
0.000488832
0.000115994
0.00061045
0.00143052
0.00153282
0.00141504
0.00121465
0.000957604
0.000797273
0.000731887
0.000709061
0.000703749
0.000706382
0.00071521
0.000718872
0.000717502
0.000709287
0.0006977
0.000683395
0.000671216
0.000660743
0.000654789
0.00065247
0.000653276
0.000661693
0.00067589
0.000697757
0.000728251
0.000769207
0.000822911
0.000892344
0.000980738
0.00109025
0.00121884
0.00135469
0.00144741
0.00147461
0.00145581
0.00133139
0.0010478
0.00059523
0.000205975
0.000663457
0.00151494
0.00159127
0.00139069
0.00110215
0.000857606
0.000745801
0.000702549
0.000688912
0.000686466
0.000689275
0.000690715
0.000685789
0.000673879
0.000657212
0.000639116
0.000621383
0.000606556
0.000594741
0.000588087
0.00058548
0.000585781
0.000593937
0.000607656
0.0006287
0.000657903
0.000696936
0.000748044
0.000814471
0.00090053
0.00101101
0.00114885
0.0013096
0.00147178
0.00155459
0.00156602
0.00148623
0.00121633
0.000737508
0.000293734
0.00069298
0.00154882
0.00159597
0.00133593
0.000996919
0.000794785
0.000711093
0.000679971
0.000670309
0.000667792
0.000666906
0.000660563
0.000646702
0.000627286
0.000605553
0.000584335
0.000565237
0.000549585
0.000537616
0.000530889
0.00052826
0.000528455
0.000536146
0.000549311
0.000569416
0.000597294
0.000634412
0.000682811
0.000745604
0.000827461
0.000934876
0.00107515
0.00125211
0.00145618
0.00160909
0.00165358
0.0016083
0.00135154
0.000854204
0.000365096
0.000692187
0.00154602
0.00158078
0.00126298
0.000916206
0.000751402
0.000684829
0.000660042
0.000651212
0.000647221
0.0006409
0.000627075
0.000606573
0.000582591
0.000558346
0.000536004
0.000516681
0.000501038
0.000489249
0.000482458
0.00047976
0.000479722
0.000486635
0.000499019
0.00051805
0.000544608
0.00058
0.000626018
0.000685376
0.000762382
0.000863751
0.000998834
0.00117716
0.00139953
0.00163203
0.00174138
0.00173944
0.00150919
0.000974415
0.000432363
0.000683507
0.00152819
0.00154385
0.00118691
0.000860379
0.000718952
0.000662743
0.00064116
0.000632215
0.000625426
0.000613371
0.000593626
0.000568796
0.000542404
0.000517214
0.00049475
0.00047568
0.000460292
0.000448668
0.000441573
0.000438568
0.000438276
0.000444111
0.000455494
0.000473322
0.000498543
0.0005324
0.000576519
0.00063328
0.00070652
0.000802687
0.000932129
0.00110878
0.00134372
0.00162606
0.0018146
0.00184608
0.00165075
0.00109357
0.000494731
0.000662826
0.00148774
0.00148855
0.00112026
0.000819067
0.000692909
0.000643131
0.000623255
0.000613812
0.000603524
0.000586513
0.000562573
0.000535191
0.000507738
0.00048242
0.000460249
0.000441558
0.000426425
0.000414858
0.000407295
0.000403852
0.000403229
0.000407875
0.000418081
0.000434573
0.000458359
0.000490684
0.000533087
0.000587672
0.000657715
0.000748878
0.000871087
0.00104003
0.00127399
0.00157747
0.00186099
0.00195249
0.00179858
0.00121397
0.000555932
0.000626687
0.00143531
0.00142635
0.00106494
0.000786903
0.000671226
0.000625684
0.000606943
0.000596443
0.000582767
0.00056192
0.000535222
0.000506469
0.000478698
0.000453616
0.000431861
0.000413546
0.000398626
0.00038706
0.000378995
0.000375049
0.000374051
0.000377538
0.000386469
0.000401515
0.000423745
0.000454461
0.000495219
0.000547996
0.000615684
0.000703238
0.000819885
0.00098199
0.0012128
0.00152767
0.00188005
0.00204068
0.00193775
0.00133733
0.000615502
0.000584879
0.00137578
0.00136206
0.00101984
0.00076144
0.000652975
0.000610382
0.000592511
0.000580617
0.000564102
0.000540505
0.000512103
0.000482698
0.000454972
0.000430253
0.000408921
0.000390951
0.000376217
0.000364635
0.000356228
0.000351726
0.000350331
0.000352773
0.000360413
0.000373948
0.000394503
0.000423469
0.000462485
0.000513508
0.000579149
0.000663626
0.000775001
0.000929118
0.00115299
0.00147583
0.0018832
0.00212308
0.00207428
0.00146119
0.000674869
0.000535257
0.00131777
0.00130045
0.000983898
0.000741619
0.000637889
0.000597329
0.000579992
0.000566732
0.000548069
0.000522642
0.000493266
0.00046362
0.000436097
0.000411757
0.00039082
0.000373169
0.000358624
0.000347066
0.000338481
0.000333441
0.000331639
0.000333193
0.0003396
0.000351621
0.000370432
0.000397526
0.000434674
0.000483936
0.000547845
0.000630081
0.00073752
0.00088455
0.00109899
0.00141998
0.00185834
0.00219263
0.00220457
0.00159292
0.000733911
0.000486529
0.00125765
0.00124298
0.000956196
0.000726853
0.000625565
0.00058625
0.000569246
0.000554941
0.000534853
0.000508349
0.000478512
0.000448863
0.000421592
0.000397599
0.000377014
0.000359662
0.000345326
0.000333852
0.000325199
0.000319712
0.000317496
0.000318331
0.000323621
0.000334192
0.000351259
0.000376408
0.000411556
0.000458942
0.000521181
0.000601606
0.000705998
0.000846992
0.00105186
0.0013665
0.00182289
0.00225534
0.00233002
0.00172582
0.000792673
0.000429944
0.00120618
0.00119183
0.000934892
0.000716908
0.000616261
0.000577265
0.000560258
0.000545239
0.000524381
0.000497422
0.000467496
0.000437988
0.000410977
0.00038729
0.000367012
0.000349938
0.000335821
0.00032448
0.000315844
0.000310049
0.000307413
0.000307678
0.000312
0.000321251
0.000336655
0.000359873
0.000392957
0.000438354
0.000498938
0.000577908
0.000680118
0.000816232
0.00101177
0.00131681
0.00178198
0.00229791
0.00245281
0.00186698
0.000851497
0.000384215
0.00115055
0.0011475
0.000920251
0.000711945
0.000609294
0.000569621
0.000552593
0.000537371
0.000516406
0.000489537
0.000459862
0.000430646
0.000403899
0.000380452
0.000360407
0.000343561
0.000329651
0.000318467
0.000309906
0.000303993
0.000300958
0.000300825
0.000304308
0.000312365
0.000326253
0.000347659
0.000378717
0.000422034
0.000480919
0.000558641
0.000659359
0.000791722
0.000978767
0.00127291
0.00174211
0.0023267
0.00257248
0.002011
0.00090972
0.000345393
0.00109321
0.00110557
0.000912345
0.000713051
0.000606469
0.000564222
0.000546338
0.000531098
0.000510538
0.000484278
0.000455144
0.000426256
0.000399755
0.000376538
0.00035673
0.000340128
0.000326447
0.000315445
0.000306982
0.000301053
0.000297828
0.000297637
0.000300561
0.000307731
0.00032038
0.000339966
0.000368716
0.000409913
0.000467083
0.000543691
0.000643485
0.000773092
0.000952335
0.00123411
0.00170352
0.00234039
0.00268939
0.00216293
0.000967851
0.000311067
0.00103673
0.00106801
0.000912082
0.000717709
0.000607584
0.000560032
0.000540983
0.000526028
0.000506424
0.000481219
0.00045302
0.000425071
0.000399125
0.000376177
0.0003565
0.000339978
0.000326355
0.000315386
0.00030691
0.000300902
0.000297521
0.000297203
0.000299668
0.000306226
0.000318192
0.000336568
0.000363701
0.000402811
0.000457829
0.00053312
0.000632494
0.000760383
0.000932551
0.00120099
0.00166704
0.00234566
0.00280372
0.00231923
0.00102487
0.000279852
0.000982157
0.00103439
0.000913853
0.000728331
0.000611773
0.000559537
0.000537094
0.000521985
0.000503508
0.000479811
0.000453229
0.000425867
0.000400227
0.000377436
0.00035785
0.000341405
0.000327876
0.000317029
0.000308705
0.000302871
0.000299664
0.000299426
0.000301539
0.000307363
0.000318408
0.000335879
0.000362047
0.000399968
0.00045348
0.000527884
0.000627098
0.00075419
0.000919873
0.00117324
0.00163002
0.00234632
0.0029137
0.00248216
0.00108111
0.000250665
0.000929071
0.00100501
0.000918834
0.000743137
0.000620855
0.000561155
0.000534522
0.000518725
0.000501592
0.000479855
0.000454414
0.000428143
0.000403164
0.000380732
0.000361355
0.000345076
0.000331729
0.000321097
0.000313015
0.000307416
0.00030441
0.000304402
0.000306441
0.000311988
0.000322564
0.00033907
0.000363681
0.000399795
0.000452297
0.00052613
0.000625283
0.000752138
0.000914028
0.0011517
0.00159448
0.00233689
0.00301984
0.00264973
0.00113551
0.000222996
0.000877678
0.000979248
0.000922319
0.000766935
0.000636772
0.000566189
0.000534935
0.000516522
0.000499959
0.000480257
0.000456932
0.00043229
0.000408334
0.000386488
0.000367441
0.000351381
0.000338229
0.000327812
0.000319972
0.000314628
0.000311938
0.000312174
0.000314401
0.000320025
0.000330464
0.000346552
0.000370384
0.000405237
0.000455924
0.000528404
0.000627475
0.000754296
0.000912533
0.0011361
0.00156122
0.00232225
0.00312073
0.00282337
0.00118817
0.000196056
0.000825579
0.000956473
0.000921899
0.000795344
0.000660343
0.000577153
0.00053763
0.000516767
0.000499968
0.000481287
0.000460124
0.000437393
0.000414851
0.000393936
0.000375485
0.000359839
0.000347033
0.000336962
0.000329497
0.000324539
0.000322391
0.000322936
0.000325526
0.000331535
0.000342101
0.000358077
0.000381474
0.000415539
0.000465233
0.000536929
0.000635957
0.000763038
0.000917584
0.00112746
0.00153094
0.00230422
0.00321398
0.0029975
0.00123806
0.000169718
0.000773019
0.000933542
0.000919075
0.000826849
0.000690326
0.000596061
0.000544776
0.000518875
0.000500856
0.000483067
0.000463742
0.000443054
0.000422267
0.000402678
0.000385187
0.000370263
0.000358057
0.000348546
0.000341652
0.000337243
0.000335912
0.000336831
0.000339932
0.000346596
0.000357514
0.000373637
0.000396914
0.000430538
0.000479474
0.000550339
0.000648952
0.000775895
0.000927674
0.00112377
0.00150273
0.00227726
0.00330297
0.00317344
0.00128547
0.000143221
0.000715354
0.000912253
0.000911891
0.000855818
0.000729135
0.000624325
0.000559716
0.000525096
0.000503918
0.000485894
0.000467834
0.000449044
0.000430184
0.000412267
0.000396135
0.000382316
0.00037105
0.000362398
0.000356327
0.000352704
0.000352435
0.000353804
0.000357581
0.000365138
0.000376578
0.000393066
0.000416503
0.000450041
0.000498562
0.00056871
0.000666512
0.000792602
0.000941263
0.00112296
0.00147676
0.00224094
0.00338307
0.0033425
0.00132936
0.000119412
0.000661073
0.000889497
0.000904035
0.000871336
0.00077342
0.000663283
0.000585997
0.000538834
0.000511468
0.000491416
0.000473362
0.000455783
0.000438622
0.000422461
0.000407951
0.000395572
0.000385586
0.000378125
0.000373095
0.000370797
0.000371283
0.000373434
0.000378319
0.000386688
0.000398811
0.000415858
0.000439704
0.000473478
0.000521865
0.0005913
0.000687665
0.000811753
0.000956639
0.00112436
0.00145172
0.00219732
0.00345131
0.00350215
0.00137058
9.91996e-05
0.000600758
0.000872246
0.000896599
0.000878495
0.000814497
0.000710948
0.000625321
0.000566001
0.000527746
0.00050268
0.000482511
0.00046472
0.000448408
0.000433599
0.000420609
0.000409761
0.000401223
0.000395186
0.000391329
0.000390755
0.000391864
0.000394947
0.000401162
0.000410412
0.000423321
0.000441085
0.00046555
0.000499822
0.000548242
0.000616822
0.000710904
0.000831555
0.00097188
0.00112704
0.0014291
0.00214999
0.00350184
0.00364115
0.00140858
8.12475e-05
0.000527048
0.000864109
0.000893953
0.000882994
0.000844485
0.000761915
0.000677556
0.000609835
0.000560545
0.000525864
0.000500314
0.000479747
0.000462414
0.00044767
0.000435368
0.000425538
0.00041819
0.000413317
0.000410936
0.000411412
0.000413374
0.000417713
0.000424946
0.000435111
0.000448863
0.000467467
0.00049269
0.000527603
0.000575996
0.000643323
0.000734017
0.000849555
0.000984235
0.00112839
0.00141166
0.00210794
0.00353318
0.00374702
0.00144517
6.48883e-05
0.000440929
0.000844481
0.000893565
0.000888683
0.000867169
0.000813075
0.000738916
0.000670567
0.000613843
0.000569475
0.000535269
0.000508412
0.000486953
0.000469756
0.000456203
0.000445892
0.00043867
0.000434034
0.000432583
0.000433448
0.000436007
0.000441257
0.00044918
0.000460077
0.00047456
0.000493971
0.000519898
0.000555342
0.000603309
0.00066871
0.000754855
0.000863983
0.000992848
0.00113049
0.0014045
0.00208758
0.00355273
0.00379776
0.00148204
5.61492e-05
0.000369244
0.000796927
0.000887522
0.000891501
0.000884968
0.000861575
0.000810775
0.000750155
0.000692853
0.000642274
0.000599452
0.000563954
0.000534993
0.000511757
0.000493589
0.000479876
0.000470181
0.000463924
0.000460917
0.000461364
0.000463443
0.000468124
0.000475881
0.000486852
0.000501564
0.000521403
0.000547636
0.000583165
0.000630046
0.00069288
0.000773983
0.000876958
0.00100244
0.00114346
0.00141369
0.00208291
0.0035739
0.00381489
0.00151129
5.73474e-05
0.000342222
0.000710148
0.000863508
0.000895759
0.000905856
0.000902496
0.00088555
0.000847791
0.000798268
0.000748176
0.000700899
0.000658282
0.000621159
0.000589787
0.000564026
0.00054353
0.000527855
0.000516487
0.000509035
0.00050502
0.000505306
0.000507549
0.000512947
0.000522703
0.000536718
0.000556321
0.000582379
0.000617696
0.00066352
0.000724537
0.00080291
0.000904253
0.00103531
0.00119857
0.00149529
0.00216669
0.00361913
0.00379585
0.00152146
7.95496e-05
0.00035877
0.000626802
0.000811639
0.000904954
0.000948986
0.000970768
0.000974071
0.000964849
0.000939991
0.000898957
0.000853452
0.000807441
0.000763689
0.00072363
0.000688178
0.000657703
0.000632305
0.000612062
0.000596482
0.000585929
0.000579354
0.000579607
0.000582413
0.000589316
0.000602494
0.000622403
0.000649739
0.000687227
0.00073619
0.000801696
0.000887892
0.00100216
0.00116093
0.00137426
0.00172963
0.00240382
0.00369799
0.00369204
0.00151988
0.000125949
0.000439517
0.000640594
0.000831383
0.000960524
0.00105195
0.00111044
0.00113782
0.00114208
0.0011338
0.00111104
0.00107135
0.00102475
0.000975755
0.000927448
0.000882647
0.000841746
0.000808133
0.000781457
0.00076079
0.000747745
0.00073874
0.000739259
0.000743587
0.000753889
0.000773638
0.000802001
0.000841018
0.000894191
0.000963903
0.00105645
0.00117909
0.0013405
0.00156601
0.00185858
0.00231247
0.00294623
0.00383796
0.00359733
0.00147271
0.000208899
0.000616863
0.00079917
0.00101527
0.00118815
0.00132575
0.0014182
0.0014689
0.00147692
0.00146917
0.00144811
0.00141121
0.00136735
0.00132312
0.0012798
0.00124167
0.00121036
0.00118479
0.00116653
0.00115733
0.00115931
0.00116742
0.00118534
0.00121633
0.00125841
0.00131391
0.00138552
0.00147271
0.00158229
0.00171181
0.00188307
0.00208667
0.00235243
0.00266757
0.00306313
0.00355595
0.00399177
0.00414748
0.00348066
0.00138982
0.00035957
0.00103856
0.00144084
0.00181916
0.00205102
0.00220125
0.00228746
0.00233221
0.00232899
0.00231652
0.00229299
0.00226795
0.00224122
0.00222412
0.00220858
0.00220963
0.00221726
0.00223529
0.00226636
0.00231048
0.00236701
0.00243911
0.00252472
0.00262672
0.00274657
0.00288178
0.00304266
0.00321315
0.00342557
0.00363228
0.00390407
0.00413435
0.00448131
0.00469709
0.00510492
0.00516058
0.00500605
0.00437517
0.0030493
0.00121339
0.000243569
0.000379055
0.000493878
0.000615581
0.000724914
0.000824682
0.000906453
0.00097678
0.00102468
0.0010574
0.00107632
0.00108523
0.00108394
0.00107952
0.00107002
0.00105761
0.00104485
0.00103087
0.00101821
0.00100565
0.000995728
0.000986377
0.000980893
0.000975964
0.00097609
0.000977738
0.000982788
0.000989367
0.00100406
0.00101531
0.00103973
0.00105614
0.00109378
0.00112213
0.00118579
0.00122516
0.00129227
0.00129663
0.00125236
0.00104623
)
;

boundaryField
{
    movingWall
    {
        type            kqRWallFunction;
        value           nonuniform List<scalar> 
40
(
0.000243569
0.000379055
0.000493878
0.000615581
0.000724914
0.000824682
0.000906453
0.00097678
0.00102468
0.0010574
0.00107632
0.00108523
0.00108394
0.00107952
0.00107002
0.00105761
0.00104485
0.00103087
0.00101821
0.00100565
0.000995728
0.000986377
0.000980893
0.000975964
0.00097609
0.000977738
0.000982788
0.000989367
0.00100406
0.00101531
0.00103973
0.00105614
0.00109378
0.00112213
0.00118579
0.00122516
0.00129227
0.00129663
0.00125236
0.00104623
)
;
    }
    fixedWalls
    {
        type            kqRWallFunction;
        value           nonuniform List<scalar> 
120
(
1.89545e-06
9.1999e-06
2.78993e-05
6.47909e-05
0.000123743
0.000208796
0.000317705
0.000434752
0.000536036
0.00061045
0.000663457
0.00069298
0.000692187
0.000683507
0.000662826
0.000626687
0.000584879
0.000535257
0.000486529
0.000429944
0.000384215
0.000345393
0.000311067
0.000279852
0.000250665
0.000222996
0.000196056
0.000169718
0.000143221
0.000119412
9.91996e-05
8.12475e-05
6.48883e-05
5.61492e-05
5.73474e-05
7.95496e-05
0.000125949
0.000208899
0.00035957
0.000243569
3.13888e-06
5.40322e-06
4.45684e-06
3.18171e-06
3.84014e-06
7.50232e-06
1.71676e-05
4.32178e-05
0.000115994
0.000205975
0.000293734
0.000365096
0.000432363
0.000494731
0.000555932
0.000615502
0.000674869
0.000733911
0.000792673
0.000851497
0.00090972
0.000967851
0.00102487
0.00108111
0.00113551
0.00118817
0.00123806
0.00128547
0.00132936
0.00137058
0.00140858
0.00144517
0.00148204
0.00151129
0.00152146
0.00151988
0.00147271
0.00138982
0.00121339
0.00104623
1.89545e-06
6.64578e-06
1.30541e-05
1.33923e-05
1.24174e-05
1.28086e-05
1.65329e-05
2.7718e-05
4.10151e-05
5.69067e-05
8.91235e-05
0.000113461
0.000125855
0.000139038
0.000159964
0.000187553
0.000214116
0.000243906
0.000273516
0.000306612
0.000341308
0.000380406
0.000423375
0.000473015
0.000531273
0.000584496
0.000638201
0.000684537
0.000724588
0.00074648
0.000755192
0.000740343
0.0006782
0.000572884
0.000427854
0.000249225
0.000118928
4.89979e-05
1.53408e-05
3.13888e-06
)
;
    }
    frontAndBack
    {
        type            empty;
    }
}


// ************************************************************************* //
