/*--------------------------------*- C++ -*----------------------------------*\
  =========                 |
  \\      /  F ield         | OpenFOAM: The Open Source CFD Toolbox
   \\    /   O peration     | Website:  https://openfoam.org
    \\  /    A nd           | Version:  12
     \\/     M anipulation  |
\*---------------------------------------------------------------------------*/
FoamFile
{
    format      ascii;
    class       volScalarField;
    location    "6.5";
    object      nut;
}
// * * * * * * * * * * * * * * * * * * * * * * * * * * * * * * * * * * * * * //

dimensions      [0 2 -1 0 0 0 0];

internalField   nonuniform List<scalar> 
1600
(
1.33358e-08
4.67494e-08
9.18197e-08
9.4185e-08
8.73252e-08
9.00753e-08
1.16272e-07
1.9495e-07
2.88485e-07
4.00335e-07
6.26915e-07
7.97978e-07
8.85074e-07
9.77772e-07
1.12494e-06
1.31897e-06
1.50577e-06
1.71528e-06
1.92351e-06
2.15628e-06
2.40028e-06
2.67526e-06
2.97743e-06
3.32655e-06
3.73626e-06
4.11052e-06
4.48819e-06
4.81404e-06
5.09568e-06
5.24963e-06
5.3109e-06
5.20649e-06
4.76953e-06
4.029e-06
3.00916e-06
1.75299e-06
8.366e-07
3.44711e-07
1.07937e-07
2.20865e-08
6.47286e-08
1.13905e-06
3.41831e-06
4.20735e-06
4.15322e-06
4.00077e-06
4.52686e-06
6.06371e-06
6.52549e-06
7.12548e-06
8.69032e-06
9.65113e-06
1.01517e-05
1.08935e-05
1.17043e-05
1.31243e-05
1.42314e-05
1.57723e-05
1.70908e-05
1.85094e-05
1.97923e-05
2.10914e-05
2.23421e-05
2.33758e-05
2.40388e-05
2.48081e-05
2.53914e-05
2.58689e-05
2.60331e-05
2.56559e-05
2.53788e-05
2.40841e-05
2.21532e-05
1.89345e-05
1.56353e-05
9.94716e-06
4.73803e-06
1.8658e-06
6.29218e-07
3.80146e-08
1.96297e-07
3.09021e-06
7.62627e-06
9.2809e-06
9.88955e-06
1.03473e-05
1.28532e-05
1.63724e-05
1.73516e-05
1.7633e-05
1.61926e-05
1.53366e-05
1.49547e-05
1.62156e-05
1.76962e-05
1.93764e-05
2.1276e-05
2.31749e-05
2.49382e-05
2.6702e-05
2.8369e-05
2.96245e-05
3.04081e-05
3.09463e-05
3.13037e-05
3.15061e-05
3.14813e-05
3.12208e-05
3.0644e-05
2.96434e-05
2.77552e-05
2.58157e-05
2.41153e-05
2.01783e-05
1.65683e-05
9.74896e-06
4.1156e-06
1.99288e-06
8.12171e-07
3.13551e-08
4.55841e-07
6.75198e-06
1.32449e-05
1.55213e-05
1.66807e-05
1.85421e-05
2.09402e-05
2.1301e-05
2.09233e-05
1.81371e-05
1.71952e-05
1.85264e-05
2.02716e-05
2.30264e-05
2.48994e-05
2.73344e-05
2.92704e-05
3.09777e-05
3.23798e-05
3.36448e-05
3.43605e-05
3.50358e-05
3.53814e-05
3.55953e-05
3.55774e-05
3.53822e-05
3.49538e-05
3.42912e-05
3.33236e-05
3.19141e-05
2.99794e-05
2.75772e-05
2.47164e-05
2.10761e-05
1.80436e-05
1.35465e-05
4.83778e-06
1.62149e-06
5.66674e-07
2.23807e-08
8.70542e-07
1.22426e-05
1.97351e-05
2.12282e-05
2.2176e-05
2.40481e-05
2.41373e-05
2.35257e-05
2.08066e-05
1.94962e-05
2.15155e-05
2.36372e-05
2.64523e-05
2.91462e-05
3.1012e-05
3.31366e-05
3.48148e-05
3.63816e-05
3.7556e-05
3.8418e-05
3.90101e-05
3.94267e-05
3.96033e-05
3.96339e-05
3.94955e-05
3.92056e-05
3.87144e-05
3.79554e-05
3.68255e-05
3.51574e-05
3.29073e-05
3.03571e-05
2.76643e-05
2.40372e-05
1.96368e-05
1.59207e-05
9.90718e-06
2.6673e-06
6.03424e-07
2.70063e-08
1.4688e-06
1.82819e-05
2.54219e-05
2.59849e-05
2.65339e-05
2.62024e-05
2.55121e-05
2.30734e-05
2.13007e-05
2.34886e-05
2.60188e-05
2.89088e-05
3.17385e-05
3.36092e-05
3.57148e-05
3.75027e-05
3.91549e-05
4.02404e-05
4.12525e-05
4.196e-05
4.24885e-05
4.27877e-05
4.28897e-05
4.27979e-05
4.25966e-05
4.22757e-05
4.18452e-05
4.12785e-05
4.05319e-05
3.96496e-05
3.73603e-05
3.42031e-05
3.10637e-05
2.73936e-05
2.28827e-05
1.79835e-05
1.28129e-05
4.28963e-06
9.59244e-07
5.27522e-08
2.23476e-06
2.29758e-05
2.99403e-05
2.9359e-05
2.81482e-05
2.73837e-05
2.50837e-05
2.27175e-05
2.47703e-05
2.76721e-05
3.05669e-05
3.33877e-05
3.52819e-05
3.74906e-05
3.94104e-05
4.10964e-05
4.24963e-05
4.36344e-05
4.45116e-05
4.5025e-05
4.53041e-05
4.53481e-05
4.5317e-05
4.52158e-05
4.50082e-05
4.47267e-05
4.43722e-05
4.39332e-05
4.33613e-05
4.25583e-05
4.16852e-05
3.98088e-05
3.64712e-05
3.30069e-05
2.8034e-05
2.15091e-05
1.52198e-05
7.9777e-06
1.55948e-06
1.20711e-07
3.05795e-06
2.70979e-05
3.28261e-05
3.11608e-05
2.996e-05
2.70805e-05
2.43993e-05
2.55207e-05
2.84921e-05
3.16077e-05
3.43863e-05
3.64023e-05
3.87207e-05
4.08834e-05
4.27066e-05
4.44081e-05
4.55607e-05
4.63439e-05
4.67939e-05
4.69812e-05
4.72747e-05
4.73497e-05
4.73652e-05
4.72487e-05
4.70345e-05
4.67418e-05
4.63939e-05
4.60086e-05
4.55777e-05
4.50354e-05
4.42185e-05
4.29889e-05
4.06124e-05
3.70666e-05
3.38047e-05
2.77531e-05
1.91025e-05
1.01305e-05
2.10152e-06
3.03879e-07
3.77014e-06
2.9823e-05
3.48916e-05
3.33123e-05
2.97997e-05
2.65242e-05
2.57802e-05
2.86743e-05
3.1974e-05
3.49179e-05
3.71839e-05
3.94533e-05
4.18649e-05
4.37997e-05
4.53212e-05
4.67012e-05
4.72835e-05
4.79943e-05
4.85139e-05
4.89511e-05
4.91735e-05
4.95467e-05
4.95539e-05
4.94703e-05
4.92136e-05
4.88297e-05
4.83493e-05
4.7826e-05
4.73152e-05
4.68423e-05
4.63443e-05
4.5583e-05
4.37614e-05
4.03307e-05
3.66342e-05
3.27478e-05
2.47717e-05
1.43938e-05
4.56497e-06
8.15645e-07
4.29336e-06
3.14281e-05
3.66218e-05
3.3692e-05
2.94365e-05
2.64471e-05
2.84191e-05
3.17674e-05
3.49894e-05
3.7601e-05
3.97479e-05
4.21283e-05
4.40517e-05
4.57743e-05
4.70356e-05
4.81192e-05
4.88928e-05
4.97824e-05
5.05228e-05
5.12668e-05
5.17104e-05
5.20501e-05
5.23395e-05
5.22437e-05
5.19708e-05
5.14555e-05
5.07572e-05
4.99314e-05
4.9078e-05
4.8309e-05
4.77059e-05
4.72302e-05
4.65998e-05
4.3812e-05
3.94694e-05
3.61536e-05
2.92689e-05
1.7811e-05
6.05981e-06
1.44843e-06
4.6661e-06
3.25849e-05
3.80986e-05
3.38375e-05
2.89658e-05
2.82364e-05
3.10661e-05
3.4468e-05
3.74307e-05
3.96808e-05
4.18358e-05
4.39374e-05
4.57665e-05
4.72457e-05
4.84675e-05
4.96307e-05
5.07259e-05
5.18904e-05
5.29483e-05
5.40208e-05
5.46812e-05
5.50866e-05
5.56386e-05
5.55715e-05
5.53023e-05
5.46939e-05
5.38016e-05
5.26648e-05
5.13845e-05
5.01108e-05
4.90166e-05
4.82079e-05
4.75772e-05
4.66241e-05
4.25816e-05
3.92236e-05
3.41146e-05
2.26148e-05
8.65655e-06
2.06557e-06
4.87357e-06
3.29242e-05
3.86384e-05
3.40036e-05
2.91263e-05
3.02422e-05
3.34229e-05
3.66627e-05
3.928e-05
4.12962e-05
4.3444e-05
4.54153e-05
4.70881e-05
4.85369e-05
4.99187e-05
5.13518e-05
5.28171e-05
5.43095e-05
5.56963e-05
5.70628e-05
5.79137e-05
5.8412e-05
5.91414e-05
5.91255e-05
5.8868e-05
5.82241e-05
5.72229e-05
5.58758e-05
5.42515e-05
5.24995e-05
5.08609e-05
4.96066e-05
4.88726e-05
4.84267e-05
4.52006e-05
4.10787e-05
3.72528e-05
2.62052e-05
1.09167e-05
2.5674e-06
4.86796e-06
3.28672e-05
3.89317e-05
3.38477e-05
3.0167e-05
3.21061e-05
3.53679e-05
3.83503e-05
4.05916e-05
4.25926e-05
4.47136e-05
4.65751e-05
4.82283e-05
4.98151e-05
5.14763e-05
5.32534e-05
5.50869e-05
5.68992e-05
5.85674e-05
6.01557e-05
6.11526e-05
6.16942e-05
6.24979e-05
6.25107e-05
6.22504e-05
6.16075e-05
6.05853e-05
5.91602e-05
5.73364e-05
5.51965e-05
5.29597e-05
5.09804e-05
4.96005e-05
4.8824e-05
4.74552e-05
4.3015e-05
4.0138e-05
3.01607e-05
1.34583e-05
3.04041e-06
4.80688e-06
3.25936e-05
3.9196e-05
3.38146e-05
3.14308e-05
3.36803e-05
3.68705e-05
3.96115e-05
4.15955e-05
4.36474e-05
4.57156e-05
4.75469e-05
4.92988e-05
5.11215e-05
5.31073e-05
5.52322e-05
5.73967e-05
5.94835e-05
6.13671e-05
6.30741e-05
6.4135e-05
6.46961e-05
6.54516e-05
6.54409e-05
6.51421e-05
6.45067e-05
6.35317e-05
6.21699e-05
6.036e-05
5.80867e-05
5.54832e-05
5.29214e-05
5.0961e-05
5.00258e-05
4.98458e-05
4.54054e-05
4.18119e-05
3.31923e-05
1.57821e-05
3.47897e-06
4.66138e-06
3.19807e-05
3.89975e-05
3.40107e-05
3.25008e-05
3.49287e-05
3.79982e-05
4.04819e-05
4.24109e-05
4.44918e-05
4.65272e-05
4.84053e-05
5.03266e-05
5.24198e-05
5.4722e-05
5.71584e-05
5.95976e-05
6.18979e-05
6.39259e-05
6.56617e-05
6.67206e-05
6.7259e-05
6.78702e-05
6.7771e-05
6.73831e-05
6.67282e-05
6.58193e-05
6.46042e-05
6.29692e-05
6.07851e-05
5.80232e-05
5.49217e-05
5.20757e-05
5.02172e-05
4.96539e-05
4.73162e-05
4.33822e-05
3.6126e-05
1.80672e-05
3.90932e-06
4.40717e-06
3.11379e-05
3.85717e-05
3.42941e-05
3.33445e-05
3.58582e-05
3.88115e-05
4.11213e-05
4.30705e-05
4.51642e-05
4.71994e-05
4.91722e-05
5.1286e-05
5.36374e-05
5.62149e-05
5.89068e-05
6.15582e-05
6.40111e-05
6.61243e-05
6.78217e-05
6.88263e-05
6.93042e-05
6.97089e-05
6.94655e-05
6.89407e-05
6.82242e-05
6.73633e-05
6.63241e-05
6.49725e-05
6.30964e-05
6.05115e-05
5.72733e-05
5.39055e-05
5.13056e-05
5.00162e-05
4.863e-05
4.43928e-05
3.83517e-05
2.02496e-05
4.3282e-06
4.11315e-06
3.01277e-05
3.79684e-05
3.45638e-05
3.3971e-05
3.65123e-05
3.93829e-05
4.1614e-05
4.35953e-05
4.56949e-05
4.77537e-05
4.98356e-05
5.2127e-05
5.46934e-05
5.74862e-05
6.03684e-05
6.3169e-05
6.57172e-05
6.78633e-05
6.94955e-05
7.04041e-05
7.07919e-05
7.09634e-05
7.05452e-05
6.98552e-05
6.90416e-05
6.81953e-05
6.7317e-05
6.62787e-05
6.48123e-05
6.25826e-05
5.94036e-05
5.56158e-05
5.22863e-05
5.05612e-05
5.0082e-05
4.54816e-05
4.02252e-05
2.23242e-05
4.74564e-06
3.76419e-06
2.91039e-05
3.72447e-05
3.47654e-05
3.44035e-05
3.69291e-05
3.97726e-05
4.19852e-05
4.39973e-05
4.60989e-05
4.81886e-05
5.03647e-05
5.27926e-05
5.55131e-05
5.84515e-05
6.14548e-05
6.43408e-05
6.69294e-05
6.90634e-05
7.06265e-05
7.14172e-05
7.16955e-05
7.16399e-05
7.10457e-05
7.01886e-05
6.92635e-05
6.84036e-05
6.76554e-05
6.69248e-05
6.59313e-05
6.42385e-05
6.14214e-05
5.75036e-05
5.3451e-05
5.0899e-05
5.04498e-05
4.64786e-05
4.16921e-05
2.43528e-05
5.1608e-06
3.42153e-06
2.79534e-05
3.6422e-05
3.48826e-05
3.46725e-05
3.71791e-05
3.99986e-05
4.22402e-05
4.42855e-05
4.63829e-05
4.84926e-05
5.07333e-05
5.32436e-05
5.6045e-05
5.90505e-05
6.21009e-05
6.50074e-05
6.75833e-05
6.96677e-05
7.11466e-05
7.18299e-05
7.1994e-05
7.17491e-05
7.1005e-05
7.00025e-05
6.89781e-05
6.80926e-05
6.74417e-05
6.69832e-05
6.64528e-05
6.53646e-05
6.30957e-05
5.93249e-05
5.47579e-05
5.13237e-05
5.04846e-05
4.76554e-05
4.29241e-05
2.62081e-05
5.57398e-06
3.02361e-06
2.7024e-05
3.55309e-05
3.48775e-05
3.48237e-05
3.72135e-05
4.01031e-05
4.23862e-05
4.44524e-05
4.6538e-05
4.86537e-05
5.09036e-05
5.34196e-05
5.62259e-05
5.92295e-05
6.22625e-05
6.5128e-05
6.76366e-05
6.96329e-05
7.10108e-05
7.16158e-05
7.16673e-05
7.125e-05
7.03945e-05
6.93377e-05
6.82694e-05
6.73651e-05
6.67895e-05
6.65662e-05
6.64646e-05
6.6001e-05
6.44097e-05
6.10337e-05
5.61678e-05
5.18182e-05
5.01519e-05
4.8541e-05
4.40261e-05
2.80149e-05
5.9876e-06
2.70204e-06
2.57047e-05
3.46264e-05
3.48085e-05
3.48345e-05
3.722e-05
3.99984e-05
4.23988e-05
4.45069e-05
4.65733e-05
4.86469e-05
5.0888e-05
5.33985e-05
5.61603e-05
5.90735e-05
6.19777e-05
6.46874e-05
6.7047e-05
6.8921e-05
7.02015e-05
7.07894e-05
7.07536e-05
7.01248e-05
6.91393e-05
6.79803e-05
6.68938e-05
6.6116e-05
6.57874e-05
6.57875e-05
6.60631e-05
6.61972e-05
6.53318e-05
6.25364e-05
5.76349e-05
5.25448e-05
5.00771e-05
4.9149e-05
4.50358e-05
2.96399e-05
6.39698e-06
2.42903e-06
2.4222e-05
3.32396e-05
3.48051e-05
3.4798e-05
3.68529e-05
3.98997e-05
4.22846e-05
4.44087e-05
4.64445e-05
4.85229e-05
5.06423e-05
5.29018e-05
5.53994e-05
5.8072e-05
6.07812e-05
6.33776e-05
6.56785e-05
6.75196e-05
6.87868e-05
6.94128e-05
6.94307e-05
6.89242e-05
6.80037e-05
6.67771e-05
6.55677e-05
6.47036e-05
6.4287e-05
6.45206e-05
6.53049e-05
6.60415e-05
6.58932e-05
6.37797e-05
5.90251e-05
5.33079e-05
5.01156e-05
4.9447e-05
4.59657e-05
3.12237e-05
6.80572e-06
2.18765e-06
2.261e-05
3.17e-05
3.47267e-05
3.47259e-05
3.66503e-05
3.9303e-05
4.2041e-05
4.42129e-05
4.62446e-05
4.81027e-05
5.00788e-05
5.23481e-05
5.48066e-05
5.73864e-05
5.99737e-05
6.24227e-05
6.45673e-05
6.62602e-05
6.7388e-05
6.78872e-05
6.77576e-05
6.72791e-05
6.65321e-05
6.55427e-05
6.46251e-05
6.37528e-05
6.3219e-05
6.33644e-05
6.42449e-05
6.54056e-05
6.60504e-05
6.47982e-05
6.03024e-05
5.4105e-05
5.0272e-05
4.95749e-05
4.67694e-05
3.27208e-05
7.20663e-06
1.96814e-06
2.09169e-05
2.99041e-05
3.4513e-05
3.46447e-05
3.63185e-05
3.89678e-05
4.14938e-05
4.38003e-05
4.57351e-05
4.7634e-05
4.96547e-05
5.17399e-05
5.39633e-05
5.62833e-05
5.86046e-05
6.07856e-05
6.26878e-05
6.41901e-05
6.52054e-05
6.56959e-05
6.56534e-05
6.52664e-05
6.46161e-05
6.36925e-05
6.2836e-05
6.22519e-05
6.2167e-05
6.2637e-05
6.35346e-05
6.49182e-05
6.60786e-05
6.54784e-05
6.1482e-05
5.47925e-05
5.03499e-05
4.96791e-05
4.74803e-05
3.41805e-05
7.60205e-06
1.7629e-06
1.9175e-05
2.81182e-05
3.40805e-05
3.43784e-05
3.57813e-05
3.84618e-05
4.0901e-05
4.31828e-05
4.52281e-05
4.71376e-05
4.89027e-05
5.07187e-05
5.26555e-05
5.4684e-05
5.67217e-05
5.86531e-05
6.03606e-05
6.17404e-05
6.27174e-05
6.32566e-05
6.33204e-05
6.30678e-05
6.25568e-05
6.18107e-05
6.11104e-05
6.06068e-05
6.0524e-05
6.11276e-05
6.26113e-05
6.45608e-05
6.6033e-05
6.5817e-05
6.24411e-05
5.5367e-05
5.03446e-05
4.96143e-05
4.81022e-05
3.55631e-05
7.98453e-06
1.56834e-06
1.74203e-05
2.63865e-05
3.30875e-05
3.44517e-05
3.53454e-05
3.76877e-05
4.03691e-05
4.25224e-05
4.45345e-05
4.63529e-05
4.80138e-05
4.96591e-05
5.13494e-05
5.3095e-05
5.48471e-05
5.65204e-05
5.80203e-05
5.92601e-05
6.01754e-05
6.07377e-05
6.09145e-05
6.07756e-05
6.04475e-05
5.99399e-05
5.94531e-05
5.91464e-05
5.92332e-05
5.99489e-05
6.14463e-05
6.35971e-05
6.56752e-05
6.62209e-05
6.29844e-05
5.58458e-05
5.01895e-05
4.9366e-05
4.86878e-05
3.68937e-05
8.35481e-06
1.3789e-06
1.56534e-05
2.46487e-05
3.14896e-05
3.43632e-05
3.50282e-05
3.68611e-05
3.95407e-05
4.18922e-05
4.38308e-05
4.5481e-05
4.7034e-05
4.85116e-05
4.99774e-05
5.14598e-05
5.29399e-05
5.43641e-05
5.56629e-05
5.67684e-05
5.76263e-05
5.82133e-05
5.85303e-05
5.85014e-05
5.83648e-05
5.81285e-05
5.78827e-05
5.78021e-05
5.80803e-05
5.89516e-05
6.0606e-05
6.29635e-05
6.52861e-05
6.622e-05
6.37523e-05
5.61012e-05
4.99264e-05
4.89613e-05
4.91345e-05
3.80969e-05
8.70556e-06
1.19371e-06
1.39166e-05
2.28254e-05
2.97219e-05
3.41631e-05
3.46798e-05
3.6106e-05
3.84195e-05
4.09161e-05
4.29295e-05
4.45468e-05
4.599e-05
4.73187e-05
4.85904e-05
4.9843e-05
5.10813e-05
5.22796e-05
5.3394e-05
5.43763e-05
5.51823e-05
5.5791e-05
5.62617e-05
5.63356e-05
5.63858e-05
5.64315e-05
5.64363e-05
5.65939e-05
5.7074e-05
5.80967e-05
5.98481e-05
6.23049e-05
6.47769e-05
6.59347e-05
6.39296e-05
5.61405e-05
4.95455e-05
4.83508e-05
4.9524e-05
3.92468e-05
9.03894e-06
1.00737e-06
1.22114e-05
2.13612e-05
2.74245e-05
3.34231e-05
3.45932e-05
3.55494e-05
3.738e-05
3.97216e-05
4.18416e-05
4.34939e-05
4.48771e-05
4.60924e-05
4.72105e-05
4.82792e-05
4.93206e-05
5.03314e-05
5.12899e-05
5.21684e-05
5.29282e-05
5.35675e-05
5.41728e-05
5.43409e-05
5.45744e-05
5.48935e-05
5.51372e-05
5.55275e-05
5.62054e-05
5.73721e-05
5.91826e-05
6.16488e-05
6.41035e-05
6.52782e-05
6.35964e-05
5.594e-05
4.89313e-05
4.7432e-05
4.97949e-05
4.02298e-05
9.34756e-06
8.39937e-07
1.07737e-05
2.01239e-05
2.52174e-05
3.15242e-05
3.44333e-05
3.51784e-05
3.65541e-05
3.84468e-05
4.05769e-05
4.234e-05
4.37248e-05
4.48751e-05
4.5883e-05
4.68126e-05
4.77017e-05
4.85658e-05
4.9399e-05
5.02e-05
5.09023e-05
5.16606e-05
5.22178e-05
5.25407e-05
5.3023e-05
5.35101e-05
5.39719e-05
5.45753e-05
5.54273e-05
5.67117e-05
5.85205e-05
6.08859e-05
6.314e-05
6.41285e-05
6.23536e-05
5.49246e-05
4.78041e-05
4.62296e-05
4.99598e-05
4.11117e-05
9.6374e-06
6.97774e-07
9.53954e-06
1.92046e-05
2.33304e-05
2.93114e-05
3.3791e-05
3.49556e-05
3.60365e-05
3.753e-05
3.92663e-05
4.10621e-05
4.24792e-05
4.36195e-05
4.45736e-05
4.54193e-05
4.6209e-05
4.69752e-05
4.77181e-05
4.84751e-05
4.91119e-05
5.0035e-05
5.04593e-05
5.09352e-05
5.16547e-05
5.22598e-05
5.28941e-05
5.36678e-05
5.46407e-05
5.5987e-05
5.76965e-05
5.98271e-05
6.16632e-05
6.22841e-05
6.02719e-05
5.33143e-05
4.64657e-05
4.47992e-05
4.98742e-05
4.17724e-05
9.90453e-06
5.715e-07
8.55101e-06
1.86582e-05
2.19827e-05
2.71522e-05
3.21997e-05
3.44529e-05
3.57168e-05
3.70057e-05
3.84422e-05
3.99451e-05
4.13303e-05
4.24639e-05
4.33916e-05
4.41845e-05
4.49026e-05
4.55937e-05
4.62692e-05
4.6963e-05
4.76356e-05
4.84999e-05
4.89164e-05
4.95615e-05
5.0351e-05
5.10534e-05
5.17928e-05
5.26664e-05
5.36646e-05
5.49721e-05
5.64261e-05
5.81567e-05
5.93306e-05
5.943e-05
5.70145e-05
5.06575e-05
4.46745e-05
4.32828e-05
4.95408e-05
4.20622e-05
1.01618e-05
4.56414e-07
7.84346e-06
1.81575e-05
2.15414e-05
2.55367e-05
3.04365e-05
3.37779e-05
3.53696e-05
3.66589e-05
3.7902e-05
3.91561e-05
4.0351e-05
4.13964e-05
4.22745e-05
4.30297e-05
4.37088e-05
4.43502e-05
4.49932e-05
4.5611e-05
4.63457e-05
4.70737e-05
4.75306e-05
4.82446e-05
4.90104e-05
4.97385e-05
5.04694e-05
5.13227e-05
5.21818e-05
5.32849e-05
5.42542e-05
5.53984e-05
5.56796e-05
5.51999e-05
5.23873e-05
4.69548e-05
4.23631e-05
4.22186e-05
4.89418e-05
4.16352e-05
1.04211e-05
3.94944e-07
7.71946e-06
1.742e-05
2.16448e-05
2.39891e-05
2.85758e-05
3.28064e-05
3.53373e-05
3.68524e-05
3.81046e-05
3.92205e-05
4.02331e-05
4.11132e-05
4.18721e-05
4.24899e-05
4.30408e-05
4.35653e-05
4.40855e-05
4.46151e-05
4.51555e-05
4.58776e-05
4.62205e-05
4.67665e-05
4.74138e-05
4.80083e-05
4.85383e-05
4.91723e-05
4.96402e-05
5.03066e-05
5.05217e-05
5.09335e-05
5.0224e-05
4.93108e-05
4.63781e-05
4.24264e-05
3.92271e-05
4.04452e-05
4.81262e-05
4.11342e-05
1.06266e-05
4.03388e-07
8.52354e-06
1.67672e-05
2.16823e-05
2.41447e-05
2.73095e-05
3.11907e-05
3.47398e-05
3.70837e-05
3.84733e-05
3.95419e-05
4.03993e-05
4.11042e-05
4.16734e-05
4.21808e-05
4.26178e-05
4.30354e-05
4.33793e-05
4.37007e-05
4.39432e-05
4.42885e-05
4.45258e-05
4.46705e-05
4.49029e-05
4.51638e-05
4.52394e-05
4.53919e-05
4.51975e-05
4.5214e-05
4.45513e-05
4.42916e-05
4.28789e-05
4.20009e-05
3.9614e-05
3.77999e-05
3.67386e-05
3.96102e-05
4.7191e-05
4.0382e-05
1.0698e-05
5.59621e-07
1.07077e-05
1.72617e-05
2.21002e-05
2.49848e-05
2.80664e-05
3.13167e-05
3.46437e-05
3.77551e-05
4.01888e-05
4.15522e-05
4.24958e-05
4.31392e-05
4.3585e-05
4.36975e-05
4.35883e-05
4.33377e-05
4.30007e-05
4.26481e-05
4.21976e-05
4.1872e-05
4.12425e-05
4.10336e-05
4.06887e-05
4.01614e-05
3.96268e-05
3.91392e-05
3.83097e-05
3.77697e-05
3.66713e-05
3.62447e-05
3.50331e-05
3.49157e-05
3.39548e-05
3.45756e-05
3.57088e-05
3.99019e-05
4.57775e-05
3.82224e-05
1.06866e-05
8.86142e-07
1.40886e-05
1.94679e-05
2.35118e-05
2.67529e-05
3.00501e-05
3.34315e-05
3.61005e-05
3.86541e-05
4.1102e-05
4.30021e-05
4.38521e-05
4.40932e-05
4.38627e-05
4.32941e-05
4.24752e-05
4.13887e-05
4.0355e-05
3.93001e-05
3.83054e-05
3.72392e-05
3.60909e-05
3.54064e-05
3.43789e-05
3.33381e-05
3.24647e-05
3.17969e-05
3.11479e-05
3.07873e-05
3.03535e-05
3.05846e-05
3.05905e-05
3.16989e-05
3.25185e-05
3.4962e-05
3.75211e-05
4.23856e-05
4.37295e-05
3.64276e-05
1.03546e-05
1.46979e-06
1.82594e-05
2.1617e-05
2.57744e-05
2.93769e-05
3.26156e-05
3.55413e-05
3.77899e-05
3.88729e-05
4.00081e-05
4.08818e-05
4.10235e-05
4.07105e-05
4.01242e-05
3.92498e-05
3.82528e-05
3.72425e-05
3.60224e-05
3.47776e-05
3.37566e-05
3.28862e-05
3.19035e-05
3.10783e-05
3.05674e-05
3.01343e-05
2.99941e-05
2.99888e-05
3.02837e-05
3.08235e-05
3.16073e-05
3.27943e-05
3.3973e-05
3.60315e-05
3.77554e-05
4.08862e-05
4.31599e-05
4.56225e-05
4.22618e-05
3.3058e-05
9.7708e-06
2.52949e-06
2.17469e-05
2.43538e-05
2.87732e-05
3.19214e-05
3.4294e-05
3.60297e-05
3.74164e-05
3.7638e-05
3.79843e-05
3.81671e-05
3.82074e-05
3.79971e-05
3.785e-05
3.73047e-05
3.71053e-05
3.68019e-05
3.64254e-05
3.6124e-05
3.59422e-05
3.58502e-05
3.59523e-05
3.60822e-05
3.64496e-05
3.68375e-05
3.74829e-05
3.81465e-05
3.90458e-05
4.00392e-05
4.11316e-05
4.25221e-05
4.36594e-05
4.56199e-05
4.62678e-05
4.87942e-05
4.76215e-05
4.59895e-05
4.00587e-05
2.50354e-05
8.53e-06
1.71347e-06
2.66644e-06
3.4741e-06
4.33e-06
5.09899e-06
5.80064e-06
6.37577e-06
6.87031e-06
7.20711e-06
7.4372e-06
7.57018e-06
7.63274e-06
7.62363e-06
7.59248e-06
7.52557e-06
7.43821e-06
7.34842e-06
7.25002e-06
7.16097e-06
7.07247e-06
7.00269e-06
6.93677e-06
6.89818e-06
6.86329e-06
6.86411e-06
6.87559e-06
6.91089e-06
6.95697e-06
7.06021e-06
7.13919e-06
7.31022e-06
7.42627e-06
7.69028e-06
7.88946e-06
8.33749e-06
8.61386e-06
9.08626e-06
9.11638e-06
8.80534e-06
7.35632e-06
)
;

boundaryField
{
    movingWall
    {
        type            nutkWallFunction;
        Cmu             0.09;
        kappa           0.41;
        E               9.8;
        value           uniform 0;
    }
    fixedWalls
    {
        type            nutkWallFunction;
        Cmu             0.09;
        kappa           0.41;
        E               9.8;
        value           uniform 0;
    }
    frontAndBack
    {
        type            empty;
    }
}


// ************************************************************************* //
