/*--------------------------------*- C++ -*----------------------------------*\
  =========                 |
  \\      /  F ield         | OpenFOAM: The Open Source CFD Toolbox
   \\    /   O peration     | Website:  https://openfoam.org
    \\  /    A nd           | Version:  12
     \\/     M anipulation  |
\*---------------------------------------------------------------------------*/
FoamFile
{
    format      ascii;
    class       volScalarField;
    location    "6.5";
    object      p;
}
// * * * * * * * * * * * * * * * * * * * * * * * * * * * * * * * * * * * * * //

dimensions      [0 2 -2 0 0 0 0];

internalField   nonuniform List<scalar> 
1600
(
1.44383e-08
-2.14676e-05
-0.000101127
-0.000215324
-0.000321307
-0.000405755
-0.000483832
-0.000586468
-0.000722987
-0.000893329
-0.00110683
-0.00141798
-0.00182256
-0.00203615
-0.00224231
-0.00275146
-0.00354101
-0.0044595
-0.00535158
-0.00608594
-0.00656784
-0.00673009
-0.00652031
-0.00589281
-0.00486727
-0.00346093
-0.00167944
0.000421846
0.00273517
0.00505406
0.00710263
0.00856902
0.00922792
0.00904604
0.00809022
0.00708811
0.0064553
0.00634317
0.00643604
0.00647933
-1.55241e-05
-6.05396e-05
-0.000149036
-0.000259648
-0.000339751
-0.000384645
-0.000426705
-0.000505546
-0.000627968
-0.000773301
-0.000910686
-0.00112031
-0.00151691
-0.00203473
-0.00262197
-0.00334983
-0.00421524
-0.0051381
-0.00600459
-0.00670805
-0.00716691
-0.0073241
-0.00713642
-0.00658045
-0.00564509
-0.00431328
-0.00261191
-0.000591201
0.00163622
0.00390245
0.00596376
0.00752004
0.00832562
0.00829535
0.00753917
0.00656473
0.00606543
0.00612774
0.00629258
0.00637121
-3.60615e-05
-0.000123409
-0.000238759
-0.000344847
-0.000391417
-0.000386128
-0.000381515
-0.000406467
-0.000484943
-0.00067913
-0.00102013
-0.0014774
-0.00207123
-0.0028048
-0.00365894
-0.0045873
-0.00553691
-0.00644802
-0.00725449
-0.00789212
-0.00830503
-0.00844087
-0.00826718
-0.00776487
-0.00690925
-0.00569345
-0.00413689
-0.00228206
-0.000208613
0.00195799
0.004016
0.00572316
0.00683436
0.00719547
0.00688082
0.00627226
0.00595472
0.00600503
0.00616236
0.00621424
-3.60875e-05
-0.000166592
-0.000320738
-0.000415308
-0.000423373
-0.000386739
-0.000374188
-0.000430263
-0.000605247
-0.000981412
-0.00159353
-0.0023823
-0.00327378
-0.00423601
-0.00524659
-0.00625979
-0.00722659
-0.00810626
-0.00885819
-0.00944152
-0.00981052
-0.00992028
-0.00974932
-0.00928354
-0.00850985
-0.00742553
-0.00604384
-0.00439382
-0.00252787
-0.0005261
0.00147631
0.00330408
0.00474534
0.00563451
0.00598646
0.00598782
0.00600144
0.00603431
0.00610408
0.0061011
9.02107e-05
-0.000102398
-0.00027673
-0.000370287
-0.000388429
-0.000386673
-0.000447515
-0.000654149
-0.00107921
-0.00176392
-0.00268071
-0.00374065
-0.00485727
-0.00597891
-0.00707123
-0.00811062
-0.00907349
-0.00993512
-0.0106491
-0.0111769
-0.0114873
-0.0115676
-0.0114044
-0.0109832
-0.010296
-0.00934378
-0.00813298
-0.00667964
-0.00501657
-0.00320207
-0.00132022
0.000521119
0.00219911
0.00360027
0.00466826
0.00541534
0.00590454
0.00613773
0.00609435
0.00602431
0.000411522
0.000146022
-5.17306e-05
-0.00018188
-0.000273461
-0.000401571
-0.00066687
-0.00116071
-0.00192632
-0.00293793
-0.00411567
-0.00536651
-0.00662177
-0.00783281
-0.00897529
-0.0100304
-0.0109697
-0.0117661
-0.0123962
-0.012849
-0.0131091
-0.013167
-0.0130146
-0.0126407
-0.0120414
-0.0112179
-0.0101737
-0.00891675
-0.00746256
-0.00583967
-0.00409308
-0.0022861
-0.00048929
0.00125384
0.00289636
0.00433778
0.00541319
0.00603122
0.00602543
0.00590829
0.00090444
0.000587566
0.000334828
0.00011798
-0.000126297
-0.000494748
-0.00108263
-0.00194324
-0.003057
-0.00434925
-0.00572266
-0.00710172
-0.00843391
-0.00968098
-0.0108203
-0.0118339
-0.0127087
-0.0134309
-0.0139912
-0.0143844
-0.014603
-0.0146417
-0.0144958
-0.01416
-0.013633
-0.0129162
-0.0120123
-0.0109257
-0.0096628
-0.00823361
-0.00665331
-0.00494221
-0.00311785
-0.00119045
0.000808474
0.00277211
0.0044452
0.00555141
0.00595618
0.00573406
0.00149992
0.00114117
0.000786098
0.000427392
-4.77525e-05
-0.000741016
-0.00170861
-0.00293615
-0.00435185
-0.00585539
-0.00736155
-0.00881271
-0.0101677
-0.0114009
-0.0124985
-0.0134524
-0.0142593
-0.0149149
-0.0154165
-0.0157616
-0.0159471
-0.015971
-0.0158311
-0.0155262
-0.0150565
-0.0144238
-0.0136305
-0.0126791
-0.0115715
-0.0103079
-0.00888672
-0.00730242
-0.00554014
-0.00357492
-0.00140149
0.000890162
0.00304789
0.00473536
0.00568299
0.00536916
0.00203474
0.00160429
0.00114016
0.000606029
-0.000148766
-0.0011973
-0.00252732
-0.00406911
-0.00571127
-0.00735725
-0.00893927
-0.0104145
-0.011755
-0.0129486
-0.0139915
-0.0148841
-0.0156288
-0.0162267
-0.0166788
-0.0169851
-0.0171456
-0.0171598
-0.0170273
-0.0167486
-0.0163249
-0.0157584
-0.0150516
-0.0142063
-0.0132222
-0.0120949
-0.0108134
-0.00935834
-0.00769853
-0.00578973
-0.00358995
-0.00113249
0.00136361
0.00355152
0.00497249
0.0050837
0.00234352
0.00184861
0.00126661
0.000537517
-0.000504162
-0.00188012
-0.00350926
-0.00527879
-0.00707127
-0.00879771
-0.0104079
-0.0118723
-0.013177
-0.0143206
-0.015307
-0.0161425
-0.0168329
-0.0173827
-0.0177953
-0.0180724
-0.0182153
-0.0182247
-0.0181008
-0.0178449
-0.0174586
-0.0169441
-0.0163041
-0.0155402
-0.014652
-0.013634
-0.0124724
-0.0111427
-0.00960656
-0.00781056
-0.00568719
-0.00320844
-0.000543613
0.00195134
0.00387904
0.00492095
0.00232075
0.00177507
0.00108066
0.000165283
-0.00113335
-0.0027658
-0.00460957
-0.00651893
-0.00839282
-0.0101471
-0.0117488
-0.0131795
-0.014437
-0.0155276
-0.0164606
-0.0172456
-0.0178909
-0.0184027
-0.0187855
-0.0190421
-0.0191741
-0.0191826
-0.0190686
-0.0188332
-0.0184782
-0.0180056
-0.017418
-0.0167172
-0.0159032
-0.0149714
-0.0139092
-0.0126926
-0.0112835
-0.00962845
-0.00765216
-0.00527988
-0.00259111
1.88462e-05
0.00228472
0.00385922
0.00193895
0.00135326
0.000561552
-0.000509726
-0.0019987
-0.00380831
-0.00577293
-0.00775384
-0.00964896
-0.0113904
-0.0129576
-0.0143408
-0.0155463
-0.0165853
-0.0174701
-0.0182125
-0.0188216
-0.0193044
-0.0196656
-0.0199084
-0.0200345
-0.0200453
-0.0199418
-0.0197251
-0.0193969
-0.0189591
-0.0184139
-0.0177634
-0.0170083
-0.0161458
-0.0151664
-0.0140499
-0.0127624
-0.0112545
-0.00945733
-0.00727755
-0.00469152
-0.00210565
0.000185009
0.00183214
0.00122148
0.000614139
-0.000246426
-0.00143495
-0.00303931
-0.00494309
-0.00695116
-0.00894621
-0.0108188
-0.0125197
-0.0140359
-0.0153649
-0.0165181
-0.0175091
-0.0183522
-0.0190593
-0.0196399
-0.0201007
-0.0204466
-0.0206804
-0.0208041
-0.0208189
-0.0207261
-0.0205266
-0.0202219
-0.0198135
-0.0193037
-0.0186945
-0.0179875
-0.017182
-0.0162721
-0.0152433
-0.014068
-0.0127035
-0.0110902
-0.0091415
-0.00678958
-0.00431139
-0.00219369
-0.000696753
0.000243333
-0.00036471
-0.0012619
-0.00252035
-0.00418163
-0.00610381
-0.00810152
-0.010066
-0.011887
-0.0135304
-0.0149876
-0.0162608
-0.0173641
-0.0183123
-0.0191196
-0.0197979
-0.020356
-0.0208002
-0.021135
-0.0213632
-0.0214865
-0.0215063
-0.0214237
-0.0212398
-0.0209557
-0.0205729
-0.0200933
-0.0195191
-0.0188528
-0.0180954
-0.017245
-0.016293
-0.0152195
-0.0139898
-0.0125534
-0.0108413
-0.00878145
-0.00649404
-0.00463613
-0.00337242
-0.0008911
-0.00148606
-0.0023934
-0.00367375
-0.00533783
-0.00722786
-0.00918577
-0.0110893
-0.0128423
-0.0144203
-0.0158164
-0.017036
-0.0180937
-0.0190043
-0.0197814
-0.0204361
-0.0209763
-0.0214078
-0.0217345
-0.0219591
-0.0220832
-0.0221081
-0.022035
-0.0218649
-0.0215989
-0.0212382
-0.0207848
-0.0202408
-0.0196093
-0.0188932
-0.018094
-0.0172085
-0.0162247
-0.0151175
-0.0138468
-0.0123606
-0.0105908
-0.00856786
-0.00696447
-0.00592887
-0.00207815
-0.00264671
-0.00354481
-0.00481093
-0.00644006
-0.00827087
-0.0101677
-0.0119961
-0.013676
-0.0151877
-0.0165253
-0.0176956
-0.018713
-0.0195914
-0.0203433
-0.0209786
-0.0215045
-0.0219261
-0.0222468
-0.022469
-0.0225944
-0.0226241
-0.0225594
-0.0224013
-0.0221508
-0.0218092
-0.0213782
-0.0208603
-0.0202588
-0.0195782
-0.0188227
-0.017994
-0.0170875
-0.0160868
-0.014962
-0.0136708
-0.0121623
-0.0104619
-0.00909259
-0.00822384
-0.00321994
-0.00375512
-0.00462762
-0.00586268
-0.00743758
-0.00919682
-0.0110213
-0.0127721
-0.0143813
-0.0158309
-0.0171156
-0.0182429
-0.0192257
-0.0200771
-0.0208083
-0.021428
-0.0219425
-0.0223564
-0.0226725
-0.0228931
-0.0230198
-0.0230538
-0.0229961
-0.022848
-0.0226104
-0.0222847
-0.0218726
-0.0213766
-0.0208007
-0.02015
-0.0194312
-0.0186503
-0.0178088
-0.0168987
-0.0158973
-0.0147688
-0.0134821
-0.0120783
-0.0109282
-0.0101938
-0.0042434
-0.00473738
-0.00557453
-0.00677156
-0.00828857
-0.00997686
-0.0117286
-0.0134069
-0.0149525
-0.0163477
-0.0175875
-0.0186788
-0.0196334
-0.020463
-0.0211777
-0.0217851
-0.0222909
-0.0226989
-0.0230117
-0.0232313
-0.0233591
-0.0233965
-0.0233444
-0.0232041
-0.0229767
-0.0226636
-0.0222666
-0.0217884
-0.021233
-0.0206066
-0.0199174
-0.0191748
-0.0183859
-0.0175495
-0.0166497
-0.0156567
-0.0145569
-0.0134009
-0.0124417
-0.0118118
-0.0050888
-0.00554729
-0.00634339
-0.00750008
-0.00896266
-0.0105899
-0.0122769
-0.013893
-0.0153853
-0.016736
-0.0179399
-0.019003
-0.0199359
-0.0207491
-0.0214515
-0.0220501
-0.0225496
-0.0229535
-0.0232641
-0.0234832
-0.0236121
-0.0236519
-0.0236039
-0.0234691
-0.023249
-0.0229449
-0.0225589
-0.0220937
-0.0215537
-0.0209456
-0.0202787
-0.019565
-0.0188158
-0.0180361
-0.0172167
-0.0163355
-0.0153872
-0.0144165
-0.0136191
-0.0130775
-0.0057309
-0.00614488
-0.00690588
-0.00802788
-0.00944376
-0.0110228
-0.0126577
-0.0142243
-0.0156758
-0.0169932
-0.018171
-0.0192142
-0.0201322
-0.0209345
-0.0216291
-0.0222222
-0.0227181
-0.0231199
-0.0234296
-0.0236487
-0.0237784
-0.02382
-0.0237743
-0.0236428
-0.0234268
-0.0231279
-0.0227483
-0.022291
-0.0217605
-0.021164
-0.0205116
-0.0198171
-0.019095
-0.0183556
-0.0175965
-0.0168035
-0.0159745
-0.0151457
-0.0144738
-0.0140012
-0.00614298
-0.00652039
-0.00725698
-0.00834992
-0.00972556
-0.0112701
-0.0128659
-0.014397
-0.0158206
-0.0171166
-0.0182783
-0.0193101
-0.0202203
-0.0210175
-0.021709
-0.0223004
-0.0227957
-0.0231976
-0.0235078
-0.0237277
-0.0238583
-0.0239007
-0.0238559
-0.0237252
-0.02351
-0.0232123
-0.0228343
-0.0223792
-0.0218517
-0.0212594
-0.020613
-0.0199277
-0.0192204
-0.0185056
-0.0177876
-0.0170598
-0.0163215
-0.0155965
-0.0150188
-0.0146002
-0.0063079
-0.00667023
-0.00739776
-0.00847056
-0.00981281
-0.0113313
-0.0128987
-0.0144087
-0.0158173
-0.0171031
-0.018259
-0.019288
-0.0201977
-0.0209958
-0.0216893
-0.0222832
-0.0227812
-0.0231857
-0.0234983
-0.02372
-0.0238517
-0.0238943
-0.0238488
-0.0237164
-0.0234988
-0.0231978
-0.022816
-0.0223569
-0.0218256
-0.0212301
-0.0205795
-0.0198933
-0.0191888
-0.0184839
-0.0177886
-0.0171045
-0.0164341
-0.015787
-0.0152767
-0.0148915
-0.00625773
-0.00661043
-0.00733495
-0.00839722
-0.00971436
-0.0112092
-0.0127626
-0.0142619
-0.0156653
-0.0169507
-0.0181097
-0.0191444
-0.0200611
-0.0208667
-0.0215677
-0.0221689
-0.0226734
-0.0230836
-0.0234007
-0.0236255
-0.0237589
-0.0238013
-0.0237538
-0.0236174
-0.0233937
-0.0230847
-0.0226933
-0.0222232
-0.0216801
-0.0210718
-0.0204098
-0.0197117
-0.0189975
-0.0182879
-0.0175977
-0.0169364
-0.0163128
-0.0157216
-0.0152729
-0.0148893
-0.00603228
-0.00637356
-0.00709417
-0.00815039
-0.00944684
-0.0109143
-0.0124602
-0.013957
-0.015363
-0.0166561
-0.0178269
-0.0188754
-0.0198067
-0.0206268
-0.0213414
-0.021955
-0.0224705
-0.0228899
-0.0232143
-0.0234442
-0.02358
-0.0236221
-0.0235714
-0.0234287
-0.0231955
-0.0228739
-0.0224668
-0.0219785
-0.0214148
-0.0207845
-0.0201004
-0.0193798
-0.018644
-0.0179157
-0.0172142
-0.0165568
-0.0159605
-0.0154
-0.0150245
-0.0146053
-0.00567506
-0.00600248
-0.00671223
-0.00775696
-0.00903256
-0.0104657
-0.0119959
-0.013494
-0.0149084
-0.0162161
-0.0174059
-0.0184761
-0.0194297
-0.0202717
-0.0210068
-0.0216389
-0.0221707
-0.0226036
-0.0229385
-0.0231756
-0.0233152
-0.0233572
-0.0233023
-0.023151
-0.0229049
-0.0225659
-0.0221372
-0.0216231
-0.0210302
-0.0203681
-0.0196505
-0.0188956
-0.0181262
-0.017366
-0.0166384
-0.0159702
-0.0153863
-0.0148246
-0.0144974
-0.0140545
-0.00524316
-0.00555031
-0.00623271
-0.00724664
-0.00849149
-0.00988684
-0.0113825
-0.0128766
-0.0143005
-0.0156266
-0.0168416
-0.0179407
-0.0189247
-0.0197966
-0.0205598
-0.0212174
-0.0217713
-0.0222228
-0.0225722
-0.0228196
-0.0229646
-0.0230071
-0.0229472
-0.0227855
-0.022523
-0.0221619
-0.0217052
-0.0211577
-0.0205266
-0.0198224
-0.01906
-0.0182589
-0.0174432
-0.016638
-0.0158713
-0.0151809
-0.0145989
-0.0140072
-0.0137201
-0.013252
-0.0048061
-0.0050778
-0.0057034
-0.00665579
-0.00784415
-0.00918899
-0.0106359
-0.0121115
-0.0135388
-0.0148836
-0.0161279
-0.0172627
-0.0182852
-0.0191956
-0.0199954
-0.0206864
-0.0212696
-0.0217456
-0.0221144
-0.0223755
-0.0225284
-0.0225724
-0.0225073
-0.0223335
-0.0220516
-0.0216637
-0.0211728
-0.0205842
-0.0199057
-0.019149
-0.0183304
-0.017471
-0.0165962
-0.0157327
-0.0149135
-0.0141871
-0.0135867
-0.0129586
-0.0127309
-0.0122153
-0.00443411
-0.00463999
-0.00516607
-0.00601906
-0.00711774
-0.00838528
-0.00976708
-0.0112041
-0.0126233
-0.0139831
-0.0152587
-0.0164351
-0.0175043
-0.0184624
-0.0193083
-0.0200416
-0.0206622
-0.0211698
-0.0215637
-0.0218431
-0.022007
-0.0220542
-0.0219842
-0.021797
-0.0214932
-0.0210742
-0.0205434
-0.0199063
-0.0191715
-0.018352
-0.0174659
-0.0165358
-0.0155893
-0.014654
-0.0137687
-0.0129909
-0.0123561
-0.0116866
-0.0115355
-0.0109362
-0.00417378
-0.00426792
-0.00464911
-0.0053666
-0.0063411
-0.00749543
-0.00878453
-0.0101593
-0.0115544
-0.0129218
-0.0142285
-0.0154513
-0.0165752
-0.0175908
-0.018493
-0.0192787
-0.0199461
-0.0204934
-0.0209194
-0.0212225
-0.0214012
-0.0214541
-0.0213804
-0.0211794
-0.0208515
-0.0203982
-0.0198225
-0.0191304
-0.0183313
-0.0174395
-0.0164749
-0.0154622
-0.0144311
-0.0134108
-0.0124452
-0.0115995
-0.0109113
-0.0101759
-0.0101391
-0.00937803
-0.00400888
-0.00394172
-0.00416788
-0.0047254
-0.00553853
-0.00653962
-0.00769979
-0.00898398
-0.0103346
-0.0116988
-0.0130338
-0.0143065
-0.0154926
-0.0165758
-0.0175453
-0.0183946
-0.019119
-0.0197154
-0.0201813
-0.0205146
-0.0207132
-0.0207754
-0.0207
-0.0204858
-0.020133
-0.019643
-0.0190189
-0.0182668
-0.0173969
-0.0164247
-0.0153722
-0.0142657
-0.0131373
-0.0120185
-0.0109584
-0.0100273
-0.0092626
-0.00843586
-0.00853017
-0.00745738
-0.00380655
-0.00362201
-0.00373632
-0.0041161
-0.00472702
-0.00553317
-0.00652684
-0.00768942
-0.00897226
-0.010319
-0.0116768
-0.0130008
-0.0142557
-0.0154161
-0.0164643
-0.0173887
-0.0181814
-0.0188372
-0.019352
-0.019723
-0.0199476
-0.0200237
-0.0199499
-0.0197246
-0.0193478
-0.0188207
-0.0181466
-0.0173317
-0.016387
-0.0153289
-0.0141809
-0.0129709
-0.0117335
-0.0105025
-0.00933345
-0.00829729
-0.00743247
-0.00650296
-0.0066631
-0.00509448
-0.00351614
-0.00334109
-0.00337048
-0.00354903
-0.00391857
-0.00448961
-0.00528063
-0.00629112
-0.00748238
-0.00879577
-0.0101685
-0.011543
-0.0128715
-0.0141176
-0.0152552
-0.0162662
-0.0171387
-0.0178645
-0.018438
-0.0188552
-0.0191131
-0.0192093
-0.0191419
-0.0189095
-0.0185115
-0.0179496
-0.017227
-0.01635
-0.0153299
-0.0141838
-0.012936
-0.0116153
-0.0102585
-0.00890203
-0.00760817
-0.00644481
-0.00545608
-0.0044138
-0.00448638
-0.00228345
-0.00326161
-0.00314303
-0.00307556
-0.00303054
-0.00312387
-0.00342244
-0.00397855
-0.00481108
-0.00589056
-0.00715597
-0.00853491
-0.00995692
-0.011361
-0.0126988
-0.0139343
-0.0150421
-0.0160049
-0.0168111
-0.017453
-0.0179255
-0.0182249
-0.0183486
-0.0182944
-0.0180614
-0.0176481
-0.017057
-0.0162914
-0.0153575
-0.0142666
-0.0130351
-0.0116874
-0.0102516
-0.00876658
-0.00727049
-0.00583233
-0.00451318
-0.00336212
-0.00214675
-0.00197032
0.000868911
-0.00306918
-0.00300927
-0.00283531
-0.0025595
-0.00234989
-0.0023447
-0.00264078
-0.00327847
-0.00423443
-0.00544263
-0.00682069
-0.00828597
-0.00976468
-0.0111964
-0.0125347
-0.0137462
-0.0148075
-0.0157028
-0.016422
-0.0169584
-0.0173079
-0.0174674
-0.0174351
-0.0172104
-0.0167919
-0.0161817
-0.0153836
-0.0144038
-0.0132523
-0.0119438
-0.0105009
-0.00894913
-0.00732714
-0.00567258
-0.00405795
-0.00253165
-0.0011493
0.000337793
0.000892852
0.00435761
-0.00287472
-0.00288513
-0.00260743
-0.00210774
-0.00158512
-0.00126545
-0.00129531
-0.00173533
-0.00256668
-0.00371693
-0.00509207
-0.00659736
-0.00814751
-0.00967114
-0.0111123
-0.0124292
-0.0135924
-0.0145819
-0.0153846
-0.0159921
-0.0163996
-0.0166039
-0.0166032
-0.016397
-0.0159877
-0.0153728
-0.014558
-0.0135486
-0.0123526
-0.0109808
-0.0094516
-0.00778404
-0.00601313
-0.00416841
-0.00231787
-0.000486321
0.00126399
0.00320129
0.00433105
0.00857137
-0.00262998
-0.00268911
-0.00234009
-0.00162963
-0.000808966
-0.00019711
1.80398e-05
-0.000242015
-0.000960974
-0.00205999
-0.003435
-0.00497972
-0.00659753
-0.00820762
-0.009746
-0.0111641
-0.0124269
-0.0135101
-0.0143981
-0.0150808
-0.0155521
-0.0158089
-0.0158497
-0.0156741
-0.0152839
-0.014681
-0.0138667
-0.0128455
-0.0116235
-0.010204
-0.00859907
-0.00681485
-0.00487608
-0.0027888
-0.000600806
0.00171385
0.00409848
0.00685851
0.00907938
0.0149137
-0.00233496
-0.00240064
-0.00197162
-0.00108705
-1.354e-05
0.00082757
0.00123512
0.00111774
0.000487291
-0.000570874
-0.00194585
-0.00352382
-0.00520031
-0.00688631
-0.00851146
-0.0100216
-0.0113768
-0.0125489
-0.0135199
-0.0142779
-0.014816
-0.01513
-0.0152192
-0.0150833
-0.0147239
-0.0141413
-0.0133385
-0.0123175
-0.0110821
-0.00962755
-0.00795746
-0.00605587
-0.00392653
-0.0015269
0.00114101
0.00421539
0.00768443
0.0120478
0.0167205
0.0262617
-0.00214104
-0.00216367
-0.00157973
-0.000504284
0.00073473
0.00175946
0.0022891
0.00226198
0.00168695
0.000646227
-0.000740791
-0.00235393
-0.00408382
-0.00583531
-0.00753301
-0.00911938
-0.0105506
-0.0117962
-0.0128369
-0.013659
-0.0142552
-0.0146204
-0.0147541
-0.014656
-0.014328
-0.0137697
-0.0129832
-0.0119625
-0.0107125
-0.00922544
-0.00749754
-0.00548338
-0.00315455
-0.000391758
0.00288641
0.00704011
0.0121932
0.019558
0.0292374
0.0458024
-0.00307546
-0.00248565
-0.00143804
-5.41631e-05
0.0013751
0.00250253
0.00310593
0.00312345
0.00257698
0.00155018
0.000161515
-0.00146998
-0.0032342
-0.00503363
-0.00678813
-0.00843528
-0.00992812
-0.0112334
-0.0123298
-0.0132021
-0.0138431
-0.0142476
-0.0144151
-0.0143444
-0.0140381
-0.0134945
-0.0127161
-0.0116987
-0.010444
-0.00893191
-0.00715263
-0.00505753
-0.00256847
0.000476423
0.0043713
0.0097441
0.0172689
0.0294691
0.0472608
0.0739861
-0.0051955
-0.00164823
-6.59384e-05
0.00128404
0.00259071
0.00361816
0.00414685
0.00409504
0.00348959
0.00242511
0.00100834
-0.00065375
-0.00245612
-0.0043025
-0.00611039
-0.00781276
-0.00936061
-0.0107192
-0.0118633
-0.012778
-0.0134543
-0.0138892
-0.0140807
-0.0140301
-0.0137372
-0.0132036
-0.0124274
-0.0114062
-0.0101313
-0.00859838
-0.00678272
-0.00469813
-0.00210531
0.000947244
0.00539529
0.011624
0.0224235
0.0404097
0.0680792
0.103832
)
;

boundaryField
{
    movingWall
    {
        type            zeroGradient;
    }
    fixedWalls
    {
        type            zeroGradient;
    }
    frontAndBack
    {
        type            empty;
    }
}


// ************************************************************************* //
