/*--------------------------------*- C++ -*----------------------------------*\
  =========                 |
  \\      /  F ield         | OpenFOAM: The Open Source CFD Toolbox
   \\    /   O peration     | Website:  https://openfoam.org
    \\  /    A nd           | Version:  12
     \\/     M anipulation  |
\*---------------------------------------------------------------------------*/
FoamFile
{
    format      ascii;
    class       surfaceScalarField;
    location    "6.5";
    object      phi;
}
// * * * * * * * * * * * * * * * * * * * * * * * * * * * * * * * * * * * * * //

dimensions      [0 3 -1 0 0 0 0];

internalField   nonuniform List<scalar> 
3120
(
8.80599e-08
-8.80612e-08
2.19163e-07
-1.31103e-07
3.17867e-07
-9.87044e-08
3.53407e-07
-3.55402e-08
3.45656e-07
7.75133e-09
3.27938e-07
1.77177e-08
3.2108e-07
6.85811e-09
3.16864e-07
4.21633e-09
2.95332e-07
2.15316e-08
2.41976e-07
5.33558e-08
1.38184e-07
1.03792e-07
-6.30705e-08
2.01255e-07
-3.8121e-07
3.1814e-07
-8.47794e-07
4.66584e-07
-1.41449e-06
5.66692e-07
-1.9803e-06
5.65812e-07
-2.4973e-06
5.16997e-07
-2.94382e-06
4.46526e-07
-3.31586e-06
3.72035e-07
-3.61431e-06
2.98453e-07
-3.84089e-06
2.26586e-07
-3.99739e-06
1.56491e-07
-4.08409e-06
8.67047e-08
-4.10019e-06
1.60975e-08
-4.04004e-06
-6.01452e-08
-3.90669e-06
-1.33357e-07
-3.68666e-06
-2.20029e-07
-3.37901e-06
-3.07647e-07
-2.97598e-06
-4.03026e-07
-2.47857e-06
-4.97412e-07
-1.88844e-06
-5.90138e-07
-1.22644e-06
-6.61991e-07
-5.47502e-07
-6.78942e-07
7.15971e-08
-6.19099e-07
5.62744e-07
-4.91147e-07
7.64969e-07
-2.02226e-07
6.53286e-07
1.11683e-07
4.22972e-07
2.30314e-07
1.77805e-07
2.45167e-07
1.77805e-07
1.60489e-07
-2.4855e-07
3.3947e-07
-3.10084e-07
4.5177e-07
-2.11005e-07
4.85516e-07
-6.92859e-08
4.5683e-07
3.64373e-08
3.87116e-07
8.74314e-08
2.87538e-07
1.06436e-07
1.36552e-07
1.55203e-07
-1.07316e-07
2.65399e-07
-4.88274e-07
4.34314e-07
-1.03438e-06
6.49898e-07
-1.71428e-06
8.81158e-07
-2.43772e-06
1.04157e-06
-3.07698e-06
1.10585e-06
-3.58121e-06
1.07092e-06
-4.00553e-06
9.90135e-07
-4.36537e-06
8.76831e-07
-4.66504e-06
7.46202e-07
-4.90456e-06
6.11553e-07
-5.08491e-06
4.78803e-07
-5.20652e-06
3.48191e-07
-5.27356e-06
2.23536e-07
-5.28451e-06
9.76495e-08
-5.23697e-06
-3.14418e-08
-5.1352e-06
-1.61912e-07
-4.9671e-06
-3.01454e-07
-4.73297e-06
-4.54168e-07
-4.42149e-06
-6.19127e-07
-4.02319e-06
-8.01321e-07
-3.53295e-06
-9.87652e-07
-2.95616e-06
-1.16692e-06
-2.3009e-06
-1.31725e-06
-1.59123e-06
-1.38862e-06
-8.7009e-07
-1.34024e-06
-2.48937e-07
-1.1123e-06
2.16129e-07
-6.67292e-07
3.71529e-07
-4.37167e-08
3.07544e-07
2.94299e-07
1.4346e-07
4.09251e-07
3.21265e-07
1.97172e-07
-4.45723e-07
3.37638e-07
-4.5055e-07
3.88209e-07
-2.61576e-07
3.62403e-07
-4.34793e-08
2.7095e-07
1.2789e-07
1.0837e-07
2.50012e-07
-1.61465e-07
3.76271e-07
-5.72795e-07
5.66533e-07
-1.14098e-06
8.33583e-07
-1.83412e-06
1.12745e-06
-2.55631e-06
1.37209e-06
-3.19122e-06
1.51607e-06
-3.71603e-06
1.56638e-06
-4.13597e-06
1.52579e-06
-4.47973e-06
1.41468e-06
-4.75738e-06
1.26778e-06
-4.98158e-06
1.10104e-06
-5.16121e-06
9.25824e-07
-5.30204e-06
7.52389e-07
-5.40528e-06
5.8204e-07
-5.47424e-06
4.17152e-07
-5.50468e-06
2.53977e-07
-5.49453e-06
8.74958e-08
-5.44624e-06
-7.97254e-08
-5.35742e-06
-2.50736e-07
-5.22525e-06
-4.33626e-07
-5.04672e-06
-6.32696e-07
-4.81609e-06
-8.49757e-07
-4.5286e-06
-1.08881e-06
-4.16998e-06
-1.34627e-06
-3.7259e-06
-1.611e-06
-3.18743e-06
-1.85572e-06
-2.55602e-06
-2.02002e-06
-1.85688e-06
-2.03938e-06
-1.14354e-06
-1.82564e-06
-4.95976e-07
-1.31486e-06
-7.75942e-08
-4.62098e-07
3.49131e-08
1.81791e-07
2.46901e-08
4.19474e-07
3.45955e-07
1.67266e-07
-6.12988e-07
2.24023e-07
-5.07307e-07
1.82194e-07
-2.19747e-07
6.27588e-08
7.59557e-08
-1.42364e-07
3.33012e-07
-4.67328e-07
5.74976e-07
-9.40041e-07
8.48984e-07
-1.55055e-06
1.17704e-06
-2.23632e-06
1.51936e-06
-2.90555e-06
1.79668e-06
-3.47795e-06
1.94449e-06
-3.9323e-06
1.97043e-06
-4.2805e-06
1.91457e-06
-4.54725e-06
1.79255e-06
-4.76071e-06
1.62814e-06
-4.93037e-06
1.43745e-06
-5.06847e-06
1.23913e-06
-5.18328e-06
1.04064e-06
-5.27544e-06
8.44551e-07
-5.3407e-06
6.47295e-07
-5.37989e-06
4.56343e-07
-5.39081e-06
2.64898e-07
-5.37522e-06
7.19028e-08
-5.33427e-06
-1.20668e-07
-5.26573e-06
-3.19283e-07
-5.16678e-06
-5.32568e-07
-5.03548e-06
-7.63999e-07
-4.8677e-06
-1.01754e-06
-4.66173e-06
-1.29478e-06
-4.4127e-06
-1.59531e-06
-4.11527e-06
-1.90843e-06
-3.7531e-06
-2.2179e-06
-3.28465e-06
-2.48848e-06
-2.68631e-06
-2.63772e-06
-1.96823e-06
-2.54371e-06
-1.18828e-06
-2.09481e-06
-4.58273e-07
-1.19211e-06
-1.28253e-07
-1.48229e-07
-2.45551e-08
3.15776e-07
3.214e-07
8.10789e-08
-6.94067e-07
2.75806e-08
-4.53809e-07
-1.19211e-07
-7.29559e-08
-3.49473e-07
3.06218e-07
-6.86794e-07
6.70334e-07
-1.15231e-06
1.04049e-06
-1.73794e-06
1.43461e-06
-2.38534e-06
1.82445e-06
-3.00433e-06
2.13835e-06
-3.51644e-06
2.30879e-06
-3.90856e-06
2.33661e-06
-4.20927e-06
2.27113e-06
-4.43422e-06
2.13952e-06
-4.60487e-06
1.9632e-06
-4.73968e-06
1.76295e-06
-4.8498e-06
1.54757e-06
-4.93535e-06
1.32468e-06
-4.99516e-06
1.10045e-06
-5.02988e-06
8.79266e-07
-5.04691e-06
6.64326e-07
-5.04774e-06
4.57174e-07
-5.03516e-06
2.52324e-07
-5.0103e-06
4.704e-08
-4.97121e-06
-1.59761e-07
-4.91576e-06
-3.74734e-07
-4.84444e-06
-6.03887e-07
-4.75656e-06
-8.5188e-07
-4.65039e-06
-1.12371e-06
-4.52223e-06
-1.42294e-06
-4.36679e-06
-1.75075e-06
-4.1743e-06
-2.10091e-06
-3.9361e-06
-2.4561e-06
-3.63401e-06
-2.79057e-06
-3.22518e-06
-3.04654e-06
-2.64156e-06
-3.12733e-06
-1.87031e-06
-2.86606e-06
-9.35563e-07
-2.12686e-06
-2.20628e-07
-8.63164e-07
-1.29473e-08
1.08096e-07
3.08452e-07
-4.73549e-08
-6.46712e-07
-2.12101e-07
-2.89063e-07
-4.58425e-07
1.73368e-07
-7.94172e-07
6.41966e-07
-1.23608e-06
1.11224e-06
-1.77719e-06
1.5816e-06
-2.37196e-06
2.02938e-06
-2.9439e-06
2.39639e-06
-3.41793e-06
2.61238e-06
-3.7703e-06
2.66116e-06
-4.03205e-06
2.59835e-06
-4.22586e-06
2.46494e-06
-4.36668e-06
2.28034e-06
-4.46884e-06
2.06536e-06
-4.53683e-06
1.83094e-06
-4.57784e-06
1.58858e-06
-4.59876e-06
1.3456e-06
-4.60644e-06
1.10814e-06
-4.60573e-06
8.78548e-07
-4.59769e-06
6.56295e-07
-4.58067e-06
4.40148e-07
-4.55557e-06
2.27227e-07
-4.52318e-06
1.46524e-08
-4.48235e-06
-2.00598e-07
-4.43345e-06
-4.23631e-07
-4.37778e-06
-6.59556e-07
-4.31617e-06
-9.13494e-07
-4.24905e-06
-1.19083e-06
-4.17569e-06
-1.49629e-06
-4.0935e-06
-1.83294e-06
-3.99499e-06
-2.19942e-06
-3.86471e-06
-2.58638e-06
-3.68488e-06
-2.97039e-06
-3.42653e-06
-3.3049e-06
-3.03405e-06
-3.51981e-06
-2.41594e-06
-3.48416e-06
-1.52528e-06
-3.01752e-06
-5.01967e-07
-1.88647e-06
-3.52734e-08
-3.58597e-07
2.73179e-07
-1.70189e-07
-4.76523e-07
-4.46004e-07
-1.32475e-08
-7.80369e-07
5.07733e-07
-1.19891e-06
1.06051e-06
-1.69747e-06
1.61079e-06
-2.24213e-06
2.12627e-06
-2.77357e-06
2.56081e-06
-3.22242e-06
2.84525e-06
-3.5509e-06
2.94086e-06
-3.78399e-06
2.89424e-06
-3.95032e-06
2.76468e-06
-4.06197e-06
2.5766e-06
-4.13206e-06
2.35042e-06
-4.17007e-06
2.10338e-06
-4.18541e-06
1.84627e-06
-4.18601e-06
1.58918e-06
-4.17764e-06
1.33723e-06
-4.16335e-06
1.09385e-06
-4.14408e-06
8.59277e-07
-4.12024e-06
6.32452e-07
-4.09173e-06
4.11638e-07
-4.05867e-06
1.94172e-07
-4.02143e-06
-2.25954e-08
-3.97973e-06
-2.42297e-07
-3.93443e-06
-4.68933e-07
-3.88689e-06
-7.07091e-07
-3.83872e-06
-9.6166e-07
-3.79163e-06
-1.23792e-06
-3.74678e-06
-1.54115e-06
-3.70392e-06
-1.8758e-06
-3.65945e-06
-2.24389e-06
-3.60403e-06
-2.64181e-06
-3.5194e-06
-3.05502e-06
-3.37324e-06
-3.45106e-06
-3.12327e-06
-3.76978e-06
-2.69737e-06
-3.91007e-06
-2.00688e-06
-3.70801e-06
-9.57466e-07
-2.93589e-06
-1.18947e-07
-1.19712e-06
1.54232e-07
-2.79644e-07
-1.9688e-07
-6.33241e-07
3.40349e-07
-1.04281e-06
9.17302e-07
-1.50912e-06
1.52682e-06
-2.0131e-06
2.11478e-06
-2.51292e-06
2.62609e-06
-2.94975e-06
2.99765e-06
-3.27225e-06
3.16774e-06
-3.49026e-06
3.15888e-06
-3.63892e-06
3.0429e-06
-3.73312e-06
2.85888e-06
-3.78455e-06
2.62802e-06
-3.80539e-06
2.37127e-06
-3.80513e-06
2.10312e-06
-3.79225e-06
1.83338e-06
-3.77225e-06
1.56919e-06
-3.74857e-06
1.31355e-06
-3.72252e-06
1.0678e-06
-3.69436e-06
8.31116e-07
-3.66409e-06
6.02183e-07
-3.63144e-06
3.78981e-07
-3.59617e-06
1.58902e-07
-3.5581e-06
-6.06674e-08
-3.51733e-06
-2.8306e-07
-3.47462e-06
-5.11647e-07
-3.43138e-06
-7.50332e-07
-3.38961e-06
-1.00342e-06
-3.35177e-06
-1.27576e-06
-3.32023e-06
-1.57269e-06
-3.29638e-06
-1.89965e-06
-3.27911e-06
-2.26116e-06
-3.26261e-06
-2.65832e-06
-3.23294e-06
-3.08469e-06
-3.1637e-06
-3.52029e-06
-3.01279e-06
-3.9207e-06
-2.72349e-06
-4.19936e-06
-2.22517e-06
-4.20633e-06
-1.41673e-06
-3.74433e-06
-3.38986e-07
-2.27486e-06
-1.84755e-07
-3.53804e-07
1.56925e-07
-7.72266e-07
7.5881e-07
-1.22106e-06
1.3661e-06
-1.69609e-06
2.00184e-06
-2.17303e-06
2.59171e-06
-2.60906e-06
3.06212e-06
-2.9415e-06
3.33009e-06
-3.16267e-06
3.38891e-06
-3.30647e-06
3.30268e-06
-3.39458e-06
3.131e-06
-3.43883e-06
2.90314e-06
-3.45159e-06
2.64077e-06
-3.44378e-06
2.36346e-06
-3.42368e-06
2.08302e-06
-3.39758e-06
1.80728e-06
-3.369e-06
1.54061e-06
-3.3398e-06
1.28435e-06
-3.31051e-06
1.03851e-06
-3.28101e-06
8.01619e-07
-3.25079e-06
5.71963e-07
-3.21913e-06
3.47318e-07
-3.18542e-06
1.25194e-07
-3.14909e-06
-9.69954e-08
-3.1102e-06
-3.21952e-07
-3.06927e-06
-5.5257e-07
-3.02759e-06
-7.92015e-07
-2.98719e-06
-1.04382e-06
-2.95085e-06
-1.31211e-06
-2.92175e-06
-1.60179e-06
-2.90275e-06
-1.91865e-06
-2.89504e-06
-2.26887e-06
-2.89587e-06
-2.65749e-06
-2.89539e-06
-3.08517e-06
-2.87281e-06
-3.54287e-06
-2.79154e-06
-4.00196e-06
-2.59938e-06
-4.39153e-06
-2.2533e-06
-4.55241e-06
-1.67129e-06
-4.32634e-06
-6.27486e-07
-3.31866e-06
-8.1224e-07
-3.97379e-07
5.54304e-07
-8.49284e-07
1.21072e-06
-1.30946e-06
1.82628e-06
-1.76932e-06
2.4617e-06
-2.20516e-06
3.02756e-06
-2.55994e-06
3.41689e-06
-2.80037e-06
3.57052e-06
-2.95534e-06
3.54388e-06
-3.04812e-06
3.39546e-06
-3.0953e-06
3.17819e-06
-3.10859e-06
2.91643e-06
-3.09986e-06
2.63205e-06
-3.07834e-06
2.34194e-06
-3.05057e-06
2.05525e-06
-3.02092e-06
1.77763e-06
-2.9916e-06
1.51129e-06
-2.96354e-06
1.25629e-06
-2.93668e-06
1.01164e-06
-2.9104e-06
7.75346e-07
-2.88379e-06
5.45353e-07
-2.85584e-06
3.19364e-07
-2.82572e-06
9.50732e-08
-2.79275e-06
-1.29962e-07
-2.75676e-06
-3.57945e-07
-2.71804e-06
-5.91286e-07
-2.67754e-06
-8.3252e-07
-2.63696e-06
-1.0844e-06
-2.59886e-06
-1.35021e-06
-2.56653e-06
-1.63412e-06
-2.54357e-06
-1.94161e-06
-2.53281e-06
-2.27964e-06
-2.53425e-06
-2.65604e-06
-2.54223e-06
-3.07719e-06
-2.5419e-06
-3.5432e-06
-2.5039e-06
-4.03997e-06
-2.37748e-06
-4.51794e-06
-2.11495e-06
-4.81495e-06
-1.65985e-06
-4.78144e-06
-8.9012e-07
-4.08839e-06
-1.70236e-06
-4.14677e-07
9.68981e-07
-8.71308e-07
1.66735e-06
-1.3201e-06
2.27507e-06
-1.74843e-06
2.89003e-06
-2.12805e-06
3.40717e-06
-2.40058e-06
3.68942e-06
-2.581e-06
3.75094e-06
-2.69116e-06
3.65404e-06
-2.74996e-06
3.45426e-06
-2.77201e-06
3.20024e-06
-2.76866e-06
2.91307e-06
-2.75057e-06
2.61396e-06
-2.72512e-06
2.31648e-06
-2.69729e-06
2.02742e-06
-2.67002e-06
1.75036e-06
-2.64461e-06
1.48588e-06
-2.62128e-06
1.23296e-06
-2.59943e-06
9.89796e-07
-2.57816e-06
7.54076e-07
-2.55636e-06
5.23553e-07
-2.53298e-06
2.95976e-07
-2.50713e-06
6.92287e-08
-2.47819e-06
-1.58906e-07
-2.44579e-06
-3.90337e-07
-2.41004e-06
-6.2704e-07
-2.3715e-06
-8.71065e-07
-2.33138e-06
-1.12451e-06
-2.2917e-06
-1.38989e-06
-2.25534e-06
-1.67047e-06
-2.22595e-06
-1.971e-06
-2.20716e-06
-2.29842e-06
-2.20105e-06
-2.66215e-06
-2.20542e-06
-3.07283e-06
-2.21063e-06
-3.53799e-06
-2.19536e-06
-4.05524e-06
-2.11543e-06
-4.59787e-06
-1.89878e-06
-5.03159e-06
-1.53288e-06
-5.14734e-06
-9.35265e-07
-4.68601e-06
-2.63763e-06
-4.05298e-07
1.37428e-06
-8.45403e-07
2.10745e-06
-1.26548e-06
2.69515e-06
-1.65354e-06
3.2781e-06
-1.96831e-06
3.72194e-06
-2.18082e-06
3.90193e-06
-2.3202e-06
3.89032e-06
-2.39856e-06
3.7324e-06
-2.43603e-06
3.49173e-06
-2.4444e-06
3.20861e-06
-2.43427e-06
2.90294e-06
-2.41458e-06
2.59427e-06
-2.39105e-06
2.29296e-06
-2.3674e-06
2.00377e-06
-2.34551e-06
1.72848e-06
-2.32596e-06
1.46632e-06
-2.30842e-06
1.21543e-06
-2.29205e-06
9.73427e-07
-2.27583e-06
7.37855e-07
-2.2587e-06
5.06417e-07
-2.2397e-06
2.76976e-07
-2.21805e-06
4.75833e-08
-2.1932e-06
-1.8376e-07
-2.16475e-06
-4.18786e-07
-2.13261e-06
-6.59179e-07
-2.09702e-06
-9.06651e-07
-2.05869e-06
-1.16285e-06
-2.01894e-06
-1.42964e-06
-1.97995e-06
-1.70945e-06
-1.94486e-06
-2.00609e-06
-1.91748e-06
-2.32581e-06
-1.90113e-06
-2.6785e-06
-1.89632e-06
-3.07764e-06
-1.89732e-06
-3.53699e-06
-1.8891e-06
-4.06346e-06
-1.84088e-06
-4.64608e-06
-1.66934e-06
-5.20314e-06
-1.36662e-06
-5.45007e-06
-8.36034e-07
-5.21659e-06
-3.47366e-06
-3.75823e-07
1.7501e-06
-7.84469e-07
2.5161e-06
-1.16674e-06
3.07742e-06
-1.50721e-06
3.61857e-06
-1.75835e-06
3.97308e-06
-1.93007e-06
4.07366e-06
-2.03796e-06
3.9982e-06
-2.09624e-06
3.79069e-06
-2.12145e-06
3.51694e-06
-2.12389e-06
3.21104e-06
-2.11309e-06
2.89215e-06
-2.09619e-06
2.57737e-06
-2.07757e-06
2.27434e-06
-2.05989e-06
1.98609e-06
-2.04425e-06
1.71284e-06
-2.03067e-06
1.45275e-06
-2.01858e-06
1.20333e-06
-2.00707e-06
9.61914e-07
-1.99519e-06
7.2598e-07
-1.98206e-06
4.93287e-07
-1.96692e-06
2.6183e-07
-1.94912e-06
2.97897e-08
-1.92823e-06
-2.04655e-07
-1.90387e-06
-4.43144e-07
-1.87584e-06
-6.87208e-07
-1.84413e-06
-9.38361e-07
-1.809e-06
-1.19798e-06
-1.77115e-06
-1.46749e-06
-1.73198e-06
-1.74862e-06
-1.69384e-06
-2.04423e-06
-1.66012e-06
-2.35953e-06
-1.63472e-06
-2.70389e-06
-1.62015e-06
-3.09221e-06
-1.61384e-06
-3.5433e-06
-1.60496e-06
-4.07234e-06
-1.57046e-06
-4.68058e-06
-1.44613e-06
-5.32746e-06
-1.17858e-06
-5.71762e-06
-7.31637e-07
-5.66353e-06
-4.2053e-06
-3.32935e-07
2.08304e-06
-7.00142e-07
2.8833e-06
-1.03739e-06
3.41466e-06
-1.32463e-06
3.90581e-06
-1.52439e-06
4.17284e-06
-1.66484e-06
4.21411e-06
-1.75035e-06
4.08371e-06
-1.79586e-06
3.8362e-06
-1.8148e-06
3.53588e-06
-1.81611e-06
3.21235e-06
-1.80798e-06
2.88401e-06
-1.7959e-06
2.56529e-06
-1.78319e-06
2.26163e-06
-1.77167e-06
1.97457e-06
-1.76184e-06
1.70301e-06
-1.75347e-06
1.44437e-06
-1.74588e-06
1.19575e-06
-1.73828e-06
9.54317e-07
-1.72991e-06
7.17609e-07
-1.7201e-06
4.83473e-07
-1.70828e-06
2.50015e-07
-1.694e-06
1.55099e-08
-1.67691e-06
-2.21745e-07
-1.6567e-06
-4.63354e-07
-1.63311e-06
-7.10805e-07
-1.60594e-06
-9.65532e-07
-1.57512e-06
-1.2288e-06
-1.54086e-06
-1.50175e-06
-1.50384e-06
-1.78564e-06
-1.4656e-06
-2.08248e-06
-1.42883e-06
-2.39631e-06
-1.39732e-06
-2.7354e-06
-1.37478e-06
-3.11475e-06
-1.36158e-06
-3.55649e-06
-1.35051e-06
-4.08341e-06
-1.32331e-06
-4.70779e-06
-1.2399e-06
-5.41087e-06
-1.00247e-06
-5.95506e-06
-6.21814e-07
-6.04418e-06
-4.82711e-06
-2.82364e-07
2.3654e-06
-5.99534e-07
3.20047e-06
-8.87898e-07
3.70303e-06
-1.12181e-06
4.13972e-06
-1.28433e-06
4.33536e-06
-1.39908e-06
4.32886e-06
-1.46712e-06
4.15175e-06
-1.50414e-06
3.87322e-06
-1.52029e-06
3.55203e-06
-1.52302e-06
3.21508e-06
-1.51894e-06
2.87993e-06
-1.51218e-06
2.55853e-06
-1.50517e-06
2.25463e-06
-1.49909e-06
1.96848e-06
-1.49409e-06
1.69801e-06
-1.48983e-06
1.44012e-06
-1.48573e-06
1.19164e-06
-1.48116e-06
9.4975e-07
-1.47559e-06
7.12034e-07
-1.46855e-06
4.76435e-07
-1.45968e-06
2.41147e-07
-1.44867e-06
4.50264e-09
-1.43528e-06
-2.35137e-07
-1.41926e-06
-4.79378e-07
-1.40032e-06
-7.29745e-07
-1.37816e-06
-9.87684e-07
-1.35251e-06
-1.25445e-06
-1.32316e-06
-1.53109e-06
-1.29027e-06
-1.81853e-06
-1.25467e-06
-2.11808e-06
-1.21828e-06
-2.43269e-06
-1.18447e-06
-2.76921e-06
-1.15743e-06
-3.14179e-06
-1.13959e-06
-3.57434e-06
-1.12634e-06
-4.09667e-06
-1.10328e-06
-4.73084e-06
-1.04278e-06
-5.47137e-06
-8.5083e-07
-6.147e-06
-5.33933e-07
-6.36108e-06
-5.36104e-06
-2.25058e-07
2.59046e-06
-4.89863e-07
3.46528e-06
-7.2952e-07
3.94269e-06
-9.14982e-07
4.32518e-06
-1.04608e-06
4.46646e-06
-1.13737e-06
4.42015e-06
-1.19261e-06
4.20699e-06
-1.224e-06
3.90461e-06
-1.23922e-06
3.56726e-06
-1.24437e-06
3.22022e-06
-1.24452e-06
2.88008e-06
-1.24265e-06
2.55667e-06
-1.24051e-06
2.25248e-06
-1.23878e-06
1.96676e-06
-1.23749e-06
1.69672e-06
-1.2363e-06
1.43893e-06
-1.2348e-06
1.19014e-06
-1.23256e-06
9.47516e-07
-1.22926e-06
7.08732e-07
-1.22463e-06
4.71802e-07
-1.21846e-06
2.34978e-07
-1.21058e-06
-3.38071e-09
-1.20082e-06
-2.4489e-07
-1.18901e-06
-4.91188e-07
-1.17488e-06
-7.43875e-07
-1.15808e-06
-1.00448e-06
-1.13818e-06
-1.27436e-06
-1.11473e-06
-1.55455e-06
-1.08747e-06
-1.84579e-06
-1.05666e-06
-2.14889e-06
-1.02359e-06
-2.46576e-06
-9.91078e-07
-2.80172e-06
-9.63466e-07
-3.1694e-06
-9.44639e-07
-3.59316e-06
-9.32891e-07
-4.10841e-06
-9.17445e-07
-4.74629e-06
-8.76687e-07
-5.51213e-06
-7.23738e-07
-6.29995e-06
-4.48604e-07
-6.63621e-06
-5.80965e-06
-1.68222e-07
2.75868e-06
-3.78198e-07
3.67526e-06
-5.68588e-07
4.13307e-06
-7.10139e-07
4.46673e-06
-8.1256e-07
4.56888e-06
-8.83783e-07
4.49137e-06
-9.28708e-07
4.25191e-06
-9.55963e-07
3.93186e-06
-9.7106e-07
3.58235e-06
-9.7869e-07
3.22785e-06
-9.82555e-07
2.88394e-06
-9.84726e-07
2.55884e-06
-9.86363e-07
2.25412e-06
-9.87883e-07
1.96828e-06
-9.89257e-07
1.69809e-06
-9.9027e-07
1.43995e-06
-9.90676e-07
1.19054e-06
-9.90263e-07
9.47103e-07
-9.88877e-07
7.07345e-07
-9.86413e-07
4.69339e-07
-9.82796e-07
2.3136e-07
-9.77956e-07
-8.22028e-09
-9.71816e-07
-2.5103e-07
-9.64251e-07
-4.98753e-07
-9.55037e-07
-7.53089e-07
-9.43823e-07
-1.0157e-06
-9.30111e-07
-1.28807e-06
-9.13299e-07
-1.57136e-06
-8.92834e-07
-1.86625e-06
-8.6854e-07
-2.17318e-06
-8.41117e-07
-2.49318e-06
-8.12775e-07
-2.83006e-06
-7.876e-07
-3.19457e-06
-7.70487e-07
-3.61028e-06
-7.62638e-07
-4.11626e-06
-7.55404e-07
-4.75352e-06
-7.27103e-07
-5.54043e-06
-6.20437e-07
-6.40662e-06
-3.91509e-07
-6.86514e-06
-6.20116e-06
-1.07305e-07
2.86599e-06
-2.65203e-07
3.83315e-06
-4.07507e-07
4.27538e-06
-5.10026e-07
4.56925e-06
-5.86635e-07
4.64549e-06
-6.39872e-07
4.54461e-06
-6.75603e-07
4.28764e-06
-6.9924e-07
3.9555e-06
-7.14249e-07
3.59736e-06
-7.23909e-07
3.23751e-06
-7.30682e-07
2.89072e-06
-7.35883e-07
2.56404e-06
-7.4024e-07
2.25847e-06
-7.44004e-07
1.97204e-06
-7.47183e-07
1.70127e-06
-7.49707e-07
1.44247e-06
-7.51508e-07
1.19234e-06
-7.52552e-07
9.48147e-07
-7.5284e-07
7.07634e-07
-7.52397e-07
4.68896e-07
-7.51252e-07
2.30215e-07
-7.49422e-07
-1.00506e-08
-7.46895e-07
-2.53557e-07
-7.43606e-07
-5.02041e-07
-7.39386e-07
-7.57309e-07
-7.33919e-07
-1.02117e-06
-7.26704e-07
-1.29529e-06
-7.17071e-07
-1.58099e-06
-7.04297e-07
-1.87903e-06
-6.87893e-07
-2.18959e-06
-6.68103e-07
-2.51297e-06
-6.46589e-07
-2.85158e-06
-6.2701e-07
-3.21415e-06
-6.14702e-07
-3.62259e-06
-6.13167e-07
-4.1178e-06
-6.16182e-07
-4.75051e-06
-6.02513e-07
-5.5541e-06
-5.28836e-07
-6.48029e-06
-3.37645e-07
-7.05633e-06
-6.5388e-06
-5.27859e-08
2.91877e-06
-1.5509e-07
3.93546e-06
-2.49501e-07
4.36979e-06
-3.1663e-07
4.63638e-06
-3.6864e-07
4.6975e-06
-4.05253e-07
4.58122e-06
-4.32313e-07
4.3147e-06
-4.52266e-07
3.97545e-06
-4.66778e-07
3.61187e-06
-4.77748e-07
3.24848e-06
-4.86522e-07
2.89949e-06
-4.93782e-07
2.5713e-06
-4.99923e-07
2.26462e-06
-5.05107e-07
1.97723e-06
-5.09416e-07
1.70558e-06
-5.12926e-07
1.44598e-06
-5.15738e-07
1.19515e-06
-5.17975e-07
9.50384e-07
-5.19769e-07
7.09428e-07
-5.21251e-07
4.70378e-07
-5.22534e-07
2.31498e-07
-5.23704e-07
-8.88085e-09
-5.24806e-07
-2.52455e-07
-5.25831e-07
-5.01017e-07
-5.26667e-07
-7.56473e-07
-5.27055e-07
-1.02078e-06
-5.26542e-07
-1.2958e-06
-5.24468e-07
-1.58306e-06
-5.2003e-07
-1.88347e-06
-5.12536e-07
-2.19708e-06
-5.01865e-07
-2.52364e-06
-4.89184e-07
-2.86426e-06
-4.77684e-07
-3.22565e-06
-4.72746e-07
-3.62752e-06
-4.79295e-07
-4.11125e-06
-4.93507e-07
-4.7363e-06
-4.97494e-07
-5.55011e-06
-4.54401e-07
-6.52339e-06
-2.98936e-07
-7.2118e-06
-6.83774e-06
7.79284e-09
2.91098e-06
-4.42398e-08
3.98749e-06
-9.5487e-08
4.42104e-06
-1.30697e-07
4.67159e-06
-1.58348e-07
4.72515e-06
-1.79127e-07
4.602e-06
-1.97262e-07
4.33284e-06
-2.13014e-07
3.9912e-06
-2.26395e-07
3.62525e-06
-2.37889e-07
3.25998e-06
-2.47797e-07
2.9094e-06
-2.56276e-07
2.57978e-06
-2.63437e-07
2.27178e-06
-2.6939e-07
1.98318e-06
-2.74302e-07
1.71049e-06
-2.78394e-07
1.45007e-06
-2.81923e-07
1.19868e-06
-2.85149e-07
9.5361e-07
-2.88319e-07
7.12598e-07
-2.91652e-07
4.7371e-07
-2.95331e-07
2.35178e-07
-2.99501e-07
-4.71168e-09
-3.04254e-07
-2.47701e-07
-3.09629e-07
-4.95642e-07
-3.15572e-07
-7.5053e-07
-3.21896e-07
-1.01445e-06
-3.28233e-07
-1.28946e-06
-3.33987e-07
-1.57731e-06
-3.38375e-07
-1.87908e-06
-3.40599e-07
-2.19486e-06
-3.40274e-07
-2.52397e-06
-3.38132e-07
-2.8664e-06
-3.36871e-07
-3.22691e-06
-3.41629e-07
-3.62277e-06
-3.5816e-07
-4.09472e-06
-3.85127e-07
-4.70933e-06
-4.06802e-07
-5.52844e-06
-3.88982e-07
-6.54121e-06
-2.6312e-07
-7.33766e-06
-7.10086e-06
6.31233e-08
2.84786e-06
6.37128e-08
3.9869e-06
5.33881e-08
4.43136e-06
4.86005e-08
4.67638e-06
4.52689e-08
4.72848e-06
3.94661e-08
4.6078e-06
3.1088e-08
4.34122e-06
2.03813e-08
4.00191e-06
9.03062e-09
3.63661e-06
-2.02541e-09
3.27103e-06
-1.22897e-08
2.91966e-06
-2.12862e-08
2.58877e-06
-2.88583e-08
2.27935e-06
-3.50813e-08
1.9894e-06
-4.02042e-08
1.71561e-06
-4.458e-08
1.45445e-06
-4.86014e-08
1.20271e-06
-5.26527e-08
9.57661e-07
-5.70834e-08
7.17029e-07
-6.21947e-08
4.78822e-07
-6.82361e-08
2.41219e-07
-7.5403e-08
2.45529e-09
-8.38344e-08
-2.3927e-07
-9.36045e-08
-4.85872e-07
-1.04707e-07
-7.39428e-07
-1.17027e-07
-1.00213e-06
-1.30295e-07
-1.27619e-06
-1.44043e-07
-1.56356e-06
-1.576e-07
-1.86552e-06
-1.70221e-07
-2.18224e-06
-1.81153e-07
-2.51304e-06
-1.90925e-07
-2.85663e-06
-2.01672e-07
-3.21617e-06
-2.18116e-07
-3.60632e-06
-2.46414e-07
-4.06642e-06
-2.87516e-07
-4.66823e-06
-3.27746e-07
-5.48821e-06
-3.35574e-07
-6.53338e-06
-2.36222e-07
-7.43701e-06
-7.33708e-06
1.19296e-07
2.72856e-06
1.69822e-07
3.93637e-06
1.99477e-07
4.40171e-06
2.25996e-07
4.64986e-06
2.47959e-07
4.70652e-06
2.57412e-07
4.59835e-06
2.56799e-07
4.34183e-06
2.50829e-07
4.00788e-06
2.41826e-07
3.64561e-06
2.31689e-07
3.28117e-06
2.21794e-07
2.92956e-06
2.12953e-07
2.59762e-06
2.05507e-07
2.28679e-06
1.99428e-07
1.99548e-06
1.94418e-07
1.72062e-06
1.9002e-07
1.45885e-06
1.8572e-07
1.207e-06
1.8102e-07
9.62362e-07
1.75469e-07
7.2258e-07
1.68685e-07
4.85606e-07
1.60352e-07
2.49552e-07
1.50223e-07
1.25836e-08
1.38121e-07
-2.27167e-07
1.23931e-07
-4.71682e-07
1.07615e-07
-7.23111e-07
8.9222e-08
-9.8374e-07
6.89164e-08
-1.25589e-06
4.70263e-08
-1.54167e-06
2.41195e-08
-1.84261e-06
9.72471e-10
-2.15909e-06
-2.23382e-08
-2.48973e-06
-4.53458e-08
-2.83362e-06
-6.97143e-08
-3.1918e-06
-9.96782e-08
-3.57636e-06
-1.41483e-07
-4.02461e-06
-1.97673e-07
-4.61204e-06
-2.55721e-07
-5.43016e-06
-2.87211e-07
-6.50189e-06
-2.12044e-07
-7.51218e-06
-7.54912e-06
1.75432e-07
2.55313e-06
2.74618e-07
3.83719e-06
3.41347e-07
4.33498e-06
3.9681e-07
4.5944e-06
4.42769e-07
4.66056e-06
4.69659e-07
4.57146e-06
4.78608e-07
4.33288e-06
4.78906e-07
4.00758e-06
4.73521e-07
3.65099e-06
4.65356e-07
3.28934e-06
4.56534e-07
2.93838e-06
4.48369e-07
2.60578e-06
4.41465e-07
2.2937e-06
4.35875e-07
2.00107e-06
4.31269e-07
1.72523e-06
4.27098e-07
1.46302e-06
4.2274e-07
1.21136e-06
4.17586e-07
9.67516e-07
4.11089e-07
7.29077e-07
4.02783e-07
4.93913e-07
3.92283e-07
2.60053e-07
3.79285e-07
2.55817e-08
3.63569e-07
-2.11451e-07
3.44984e-07
-4.53097e-07
3.23438e-07
-7.01565e-07
2.98899e-07
-9.59201e-07
2.71406e-07
-1.22839e-06
2.4113e-07
-1.5114e-06
2.08403e-07
-1.80989e-06
1.73672e-07
-2.12436e-06
1.37741e-07
-2.4538e-06
1.00605e-07
-2.79648e-06
6.12614e-08
-3.15245e-06
1.60841e-08
-3.53118e-06
-4.11626e-08
-3.96737e-06
-1.14096e-07
-4.5391e-06
-1.9065e-07
-5.35361e-06
-2.42485e-07
-6.45005e-06
-1.94153e-07
-7.56051e-06
-7.74328e-06
2.2947e-07
2.32366e-06
3.77085e-07
3.68957e-06
4.79978e-07
4.23208e-06
5.63764e-07
4.51061e-06
6.31031e-07
4.59329e-06
6.77373e-07
4.52512e-06
6.98014e-07
4.31224e-06
7.05938e-07
3.99966e-06
7.05425e-07
3.65151e-06
7.00308e-07
3.29445e-06
6.93453e-07
2.94524e-06
6.8667e-07
2.61256e-06
6.80846e-07
2.29952e-06
6.76146e-07
2.00577e-06
6.7225e-07
1.72913e-06
6.6856e-07
1.46671e-06
6.64368e-07
1.21555e-06
6.58968e-07
9.72915e-07
6.5172e-07
7.36326e-07
6.42071e-07
5.03562e-07
6.29565e-07
2.72559e-07
6.13839e-07
4.13073e-08
5.94623e-07
-1.92235e-07
5.7171e-07
-4.30184e-07
5.4493e-07
-6.74785e-07
5.14164e-07
-9.28435e-07
4.79349e-07
-1.19358e-06
4.40492e-07
-1.47254e-06
3.97689e-07
-1.76708e-06
3.51229e-07
-2.0779e-06
3.01622e-07
-2.40419e-06
2.49204e-07
-2.74407e-06
1.9343e-07
-3.09668e-06
1.31384e-07
-3.46914e-06
5.70602e-08
-3.89304e-06
-3.43219e-08
-4.44772e-06
-1.31296e-07
-5.25663e-06
-2.02514e-07
-6.37883e-06
-1.77828e-07
-7.58519e-06
-7.92111e-06
2.81191e-07
2.04247e-06
4.75837e-07
3.49493e-06
6.13953e-07
4.09397e-06
7.25849e-07
4.39871e-06
8.13554e-07
4.50559e-06
8.79778e-07
4.45889e-06
9.15175e-07
4.27684e-06
9.32416e-07
3.98242e-06
9.38309e-07
3.64561e-06
9.37654e-07
3.29511e-06
9.33947e-07
2.94894e-06
9.29464e-07
2.61705e-06
9.25398e-07
2.30359e-06
9.22095e-07
2.00907e-06
9.19304e-07
1.73192e-06
9.16418e-07
1.46959e-06
9.12676e-07
1.2193e-06
9.07293e-07
9.78299e-07
8.99538e-07
7.4408e-07
8.88776e-07
5.14324e-07
8.74471e-07
2.86863e-07
8.56193e-07
5.95858e-08
8.33605e-07
-1.69647e-07
8.06426e-07
-4.03005e-07
7.74412e-07
-6.42772e-07
7.37358e-07
-8.91381e-07
6.95064e-07
-1.15129e-06
6.47328e-07
-1.4248e-06
5.94026e-07
-1.71378e-06
5.35235e-07
-2.01911e-06
4.71224e-07
-2.34018e-06
4.02409e-07
-2.67525e-06
3.28772e-07
-3.02304e-06
2.48192e-07
-3.38855e-06
1.55121e-07
-3.79997e-06
4.39204e-08
-4.33652e-06
-7.47954e-08
-5.13792e-06
-1.66899e-07
-6.28673e-06
-1.65345e-07
-7.58675e-06
-8.08645e-06
3.28363e-07
1.7141e-06
5.67969e-07
3.25532e-06
7.40263e-07
3.92167e-06
8.78585e-07
4.26039e-06
9.89268e-07
4.39491e-06
1.07537e-06
4.37279e-06
1.12887e-06
4.22334e-06
1.15796e-06
3.95334e-06
1.17235e-06
3.63122e-06
1.178e-06
3.28946e-06
1.179e-06
2.94794e-06
1.17808e-06
2.61797e-06
1.17676e-06
2.30491e-06
1.1756e-06
2.01022e-06
1.1745e-06
1.73302e-06
1.17288e-06
1.47121e-06
1.16998e-06
1.2222e-06
1.16495e-06
9.83324e-07
1.157e-06
7.5203e-07
1.14541e-06
5.25914e-07
1.12957e-06
3.02712e-07
1.10895e-06
8.02008e-08
1.08315e-06
-1.43851e-07
1.0518e-06
-3.7165e-07
1.01455e-06
-6.05521e-07
9.71083e-07
-8.47914e-07
9.21054e-07
-1.10126e-06
8.64082e-07
-1.36783e-06
7.99784e-07
-1.64948e-06
7.27901e-07
-1.94722e-06
6.48484e-07
-2.26076e-06
5.62051e-07
-2.58882e-06
4.6906e-07
-2.93005e-06
3.68184e-07
-3.28768e-06
2.54705e-07
-3.68649e-06
1.23349e-07
-4.20516e-06
-1.44098e-08
-5.00016e-06
-1.26923e-07
-6.17422e-06
-1.49695e-07
-7.56398e-06
-8.23615e-06
3.66156e-07
1.34795e-06
6.47806e-07
2.97367e-06
8.544e-07
3.71508e-06
1.01963e-06
4.09516e-06
1.15443e-06
4.26011e-06
1.2603e-06
4.26693e-06
1.33522e-06
4.14841e-06
1.38024e-06
3.90832e-06
1.40639e-06
3.60506e-06
1.421e-06
3.27486e-06
1.42894e-06
2.94e-06
1.43342e-06
2.61349e-06
1.43632e-06
2.30201e-06
1.43847e-06
2.00807e-06
1.43994e-06
1.73156e-06
1.44028e-06
1.47087e-06
1.43877e-06
1.22371e-06
1.43456e-06
9.87533e-07
1.42681e-06
7.59779e-07
1.41474e-06
5.37982e-07
1.39765e-06
3.19801e-07
1.37496e-06
1.02896e-07
1.34614e-06
-1.15036e-07
1.31071e-06
-3.36221e-07
1.26822e-06
-5.63026e-07
1.2182e-06
-7.97892e-07
1.16012e-06
-1.04318e-06
1.0934e-06
-1.30111e-06
1.01738e-06
-1.57346e-06
9.31525e-07
-1.86137e-06
8.35663e-07
-2.1649e-06
7.30233e-07
-2.48339e-06
6.16092e-07
-2.81591e-06
4.9294e-07
-3.16453e-06
3.56787e-07
-3.55034e-06
2.02289e-07
-4.05066e-06
3.91587e-08
-4.83703e-06
-9.60416e-08
-6.03902e-06
-1.40656e-07
-7.51936e-06
-8.3768e-06
3.85393e-07
9.62554e-07
7.06621e-07
2.65245e-06
9.50589e-07
3.47111e-06
1.14395e-06
3.90179e-06
1.30298e-06
4.10109e-06
1.4317e-06
4.1382e-06
1.53012e-06
4.04999e-06
1.59559e-06
3.84285e-06
1.63789e-06
3.56276e-06
1.66521e-06
3.24754e-06
1.68324e-06
2.92197e-06
1.69574e-06
2.60099e-06
1.70498e-06
2.29277e-06
1.71213e-06
2.00093e-06
1.7175e-06
1.72618e-06
1.72085e-06
1.46753e-06
1.72154e-06
1.22302e-06
1.7188e-06
9.90277e-07
1.71178e-06
7.66799e-07
1.69966e-06
5.50096e-07
1.68168e-06
3.37779e-07
1.65719e-06
1.2739e-07
1.62554e-06
-8.33896e-08
1.58611e-06
-2.96792e-07
1.53832e-06
-5.1523e-07
1.48152e-06
-7.41092e-07
1.41498e-06
-9.7664e-07
1.33786e-06
-1.22399e-06
1.24925e-06
-1.48485e-06
1.14834e-06
-1.76047e-06
1.03473e-06
-2.05128e-06
9.08789e-07
-2.35745e-06
7.71627e-07
-2.67875e-06
6.23957e-07
-3.01686e-06
4.62786e-07
-3.38917e-06
2.82911e-07
-3.87079e-06
9.3476e-08
-4.64759e-06
-6.3913e-08
-5.88163e-06
-1.28094e-07
-7.45518e-06
-8.5049e-06
3.68637e-07
5.93917e-07
7.34606e-07
2.28648e-06
1.02056e-06
3.18516e-06
1.24456e-06
3.67779e-06
1.4287e-06
3.91695e-06
1.58296e-06
3.98395e-06
1.70746e-06
3.92549e-06
1.79842e-06
3.75188e-06
1.86238e-06
3.4988e-06
1.90744e-06
3.20248e-06
1.9399e-06
2.88951e-06
1.96406e-06
2.57683e-06
1.98268e-06
2.27415e-06
1.99729e-06
1.98632e-06
2.00853e-06
1.71494e-06
2.0164e-06
1.45965e-06
2.0205e-06
1.21892e-06
2.02015e-06
9.9063e-07
2.01458e-06
7.72369e-07
2.00297e-06
5.61703e-07
1.98452e-06
3.56224e-07
1.95853e-06
1.5338e-07
1.9242e-06
-4.90588e-08
1.8808e-06
-2.53387e-07
1.82756e-06
-4.61995e-07
1.76364e-06
-6.77174e-07
1.68806e-06
-9.01057e-07
1.59973e-06
-1.13565e-06
1.49745e-06
-1.38258e-06
1.38021e-06
-1.64323e-06
1.24738e-06
-1.91845e-06
1.09931e-06
-2.20938e-06
9.37212e-07
-2.51665e-06
7.62709e-07
-2.84235e-06
5.73964e-07
-3.20042e-06
3.66484e-07
-3.66331e-06
1.4902e-07
-4.43013e-06
-3.73329e-08
-5.69527e-06
-1.2286e-07
-7.36965e-06
-8.62776e-06
2.98192e-07
2.95725e-07
7.25303e-07
1.85936e-06
1.05403e-06
2.85643e-06
1.31192e-06
3.4199e-06
1.52408e-06
3.70479e-06
1.70604e-06
3.80199e-06
1.86008e-06
3.77145e-06
1.98165e-06
3.63031e-06
2.07368e-06
3.40678e-06
2.14273e-06
3.13343e-06
2.19518e-06
2.83706e-06
2.23583e-06
2.53618e-06
2.26788e-06
2.2421e-06
2.29332e-06
1.96088e-06
2.31317e-06
1.69509e-06
2.32777e-06
1.44505e-06
2.33698e-06
1.20971e-06
2.34033e-06
9.87272e-07
2.33721e-06
7.75491e-07
2.32685e-06
5.72069e-07
2.30846e-06
3.74605e-07
2.28131e-06
1.80539e-07
2.24439e-06
-1.21392e-08
2.19697e-06
-2.05976e-07
2.13805e-06
-4.03073e-07
2.06654e-06
-6.05663e-07
1.9812e-06
-8.15719e-07
1.88069e-06
-1.03514e-06
1.76356e-06
-1.26545e-06
1.62861e-06
-1.50828e-06
1.47506e-06
-1.7649e-06
1.30325e-06
-2.03757e-06