/*--------------------------------*- C++ -*----------------------------------*\
  =========                 |
  \\      /  F ield         | OpenFOAM: The Open Source CFD Toolbox
   \\    /   O peration     | Website:  https://openfoam.org
    \\  /    A nd           | Version:  12
     \\/     M anipulation  |
\*---------------------------------------------------------------------------*/
FoamFile
{
    format      ascii;
    class       volVectorField;
    location    "6.5";
    object      U;
}
// * * * * * * * * * * * * * * * * * * * * * * * * * * * * * * * * * * * * * //

dimensions      [0 1 -1 0 0 0 0];

internalField   nonuniform List<vector> 
1600
(
(0.00121732 -0.00105365 0)
(0.00620498 -0.00162568 0)
(0.0109553 -0.00133611 0)
(0.0138477 -0.000254406 0)
(0.0141969 0.000306494 0)
(0.0136892 0.000117108 0)
(0.0130067 -0.000633852 0)
(0.0128613 -0.00117927 0)
(0.0124822 -0.00118594 0)
(0.0113066 -0.000916991 0)
(0.00869602 -0.0007468 0)
(0.00228819 -8.43781e-05 0)
(-0.00840287 0.00181119 0)
(-0.0203877 0.00728208 0)
(-0.0441842 0.0129946 0)
(-0.0693941 0.0134182 0)
(-0.0914151 0.0123137 0)
(-0.110875 0.0107708 0)
(-0.126828 0.00907923 0)
(-0.140082 0.00744371 0)
(-0.150247 0.00584048 0)
(-0.157841 0.00430786 0)
(-0.162329 0.00283894 0)
(-0.164227 0.00144601 0)
(-0.16373 -0.00075296 0)
(-0.159365 -0.00236591 0)
(-0.15231 -0.00459918 0)
(-0.141051 -0.00646303 0)
(-0.126442 -0.00871437 0)
(-0.108024 -0.0109427 0)
(-0.0863835 -0.0132334 0)
(-0.0618415 -0.0147687 0)
(-0.0357355 -0.0150848 0)
(-0.00890395 -0.0137028 0)
(0.0127428 -0.0116969 0)
(0.0289312 -0.00457056 0)
(0.0305939 0.00314301 0)
(0.0243 0.00515333 0)
(0.0116535 0.00442755 0)
(0.00244819 0.00302356 0)
(0.00218692 -0.00614836 0)
(0.010629 -0.00910741 0)
(0.0161392 -0.00666736 0)
(0.019223 -0.00264466 0)
(0.0195228 0.00039511 0)
(0.0175378 0.00151425 0)
(0.0139995 0.00136471 0)
(0.00911449 0.00165427 0)
(0.00155632 0.00315089 0)
(-0.0104571 0.00586367 0)
(-0.0276815 0.0108657 0)
(-0.053698 0.0196272 0)
(-0.084304 0.0283471 0)
(-0.111432 0.0344273 0)
(-0.133733 0.0347592 0)
(-0.152812 0.0322471 0)
(-0.168674 0.0284764 0)
(-0.181946 0.0241883 0)
(-0.192503 0.0198815 0)
(-0.200775 0.0156501 0)
(-0.20663 0.0115647 0)
(-0.210334 0.00754182 0)
(-0.211779 0.00354238 0)
(-0.211077 -0.000600765 0)
(-0.208011 -0.0051169 0)
(-0.20255 -0.00984556 0)
(-0.194406 -0.0149094 0)
(-0.183332 -0.0202828 0)
(-0.169032 -0.0259643 0)
(-0.150817 -0.0315016 0)
(-0.129266 -0.036638 0)
(-0.105038 -0.0407822 0)
(-0.0781723 -0.0419142 0)
(-0.0501567 -0.0389389 0)
(-0.0231696 -0.0307268 0)
(0.000153011 -0.0146936 0)
(0.0162723 0.00360044 0)
(0.0164621 0.0113921 0)
(0.00980965 0.0137892 0)
(0.00152191 0.0105502 0)
(0.00344389 -0.0141451 0)
(0.0116522 -0.0163378 0)
(0.0148481 -0.0107875 0)
(0.0155889 -0.00332333 0)
(0.0135171 0.00220135 0)
(0.0087147 0.00523387 0)
(0.000226096 0.00741363 0)
(-0.0129072 0.0117102 0)
(-0.0322983 0.0199725 0)
(-0.0586373 0.0313809 0)
(-0.088439 0.0426274 0)
(-0.115818 0.0496472 0)
(-0.139442 0.0528206 0)
(-0.158075 0.0526957 0)
(-0.173329 0.0496461 0)
(-0.185618 0.0449762 0)
(-0.195572 0.0392845 0)
(-0.203579 0.0332531 0)
(-0.209892 0.0271675 0)
(-0.214672 0.0212107 0)
(-0.218126 0.0150848 0)
(-0.220054 0.00932017 0)
(-0.220471 0.0034633 0)
(-0.219279 -0.00244305 0)
(-0.216457 -0.00867702 0)
(-0.211986 -0.0153225 0)
(-0.205741 -0.0227231 0)
(-0.197448 -0.0308713 0)
(-0.186979 -0.0399339 0)
(-0.173975 -0.0493048 0)
(-0.157957 -0.0584141 0)
(-0.138324 -0.0657276 0)
(-0.11536 -0.0691744 0)
(-0.0897176 -0.0672163 0)
(-0.0621661 -0.0569174 0)
(-0.0339568 -0.03654 0)
(-0.00671076 -0.0065271 0)
(0.00163878 0.0113796 0)
(0.00187375 0.0180498 0)
(-0.000186498 0.0141066 0)
(0.00400077 -0.0227504 0)
(0.00852664 -0.0207204 0)
(0.00866204 -0.0111385 0)
(0.0056416 -0.000632355 0)
(-0.000325693 0.00762861 0)
(-0.0105499 0.0147708 0)
(-0.0264166 0.0231007 0)
(-0.0483073 0.0343115 0)
(-0.0749431 0.0475513 0)
(-0.103587 0.0596518 0)
(-0.12949 0.0676586 0)
(-0.149539 0.0705925 0)
(-0.165383 0.0699745 0)
(-0.17728 0.0663666 0)
(-0.186919 0.0609215 0)
(-0.194359 0.0543749 0)
(-0.20037 0.0472128 0)
(-0.205367 0.0395385 0)
(-0.209555 0.0318654 0)
(-0.212734 0.0243116 0)
(-0.214794 0.0171924 0)
(-0.215741 0.00998203 0)
(-0.215629 0.00279508 0)
(-0.214484 -0.00458545 0)
(-0.212277 -0.0122153 0)
(-0.208892 -0.0203304 0)
(-0.204254 -0.029085 0)
(-0.198224 -0.0386169 0)
(-0.19064 -0.0489752 0)
(-0.181411 -0.060474 0)
(-0.170436 -0.0726246 0)
(-0.157393 -0.0845008 0)
(-0.141654 -0.0935903 0)
(-0.121152 -0.0958712 0)
(-0.0954135 -0.0872642 0)
(-0.0655288 -0.0656509 0)
(-0.0296466 -0.027953 0)
(-0.00731291 0.00395611 0)
(-0.00209757 0.01596 0)
(-0.000206116 0.0136918 0)
(0.00239568 -0.0271961 0)
(0.00310983 -0.0207023 0)
(-0.00119217 -0.00691334 0)
(-0.00828799 0.00650137 0)
(-0.019199 0.0188909 0)
(-0.0350451 0.0313779 0)
(-0.0564209 0.0453952 0)
(-0.0819595 0.0605894 0)
(-0.10846 0.0741853 0)
(-0.132157 0.0831782 0)
(-0.150036 0.0862861 0)
(-0.163462 0.0853225 0)
(-0.173737 0.0814616 0)
(-0.181283 0.0754167 0)
(-0.187277 0.0681384 0)
(-0.192053 0.0598247 0)
(-0.196074 0.0512415 0)
(-0.199013 0.0427651 0)
(-0.200823 0.0344333 0)
(-0.201753 0.0262102 0)
(-0.202079 0.0181683 0)
(-0.201827 0.0101748 0)
(-0.201077 0.00219598 0)
(-0.199801 -0.00597717 0)
(-0.197889 -0.0144786 0)
(-0.195334 -0.0235499 0)
(-0.192122 -0.0333803 0)
(-0.188195 -0.0441452 0)
(-0.183459 -0.0559148 0)
(-0.177759 -0.068595 0)
(-0.170835 -0.0818806 0)
(-0.162262 -0.0950546 0)
(-0.151818 -0.107679 0)
(-0.138469 -0.116483 0)
(-0.119571 -0.115971 0)
(-0.0923718 -0.0996032 0)
(-0.0572332 -0.0646793 0)
(-0.01724 -0.0142598 0)
(-0.00211388 0.0104861 0)
(0.000785432 0.012872 0)
(-0.000459545 -0.0279656 0)
(-0.00433596 -0.0156882 0)
(-0.0126163 0.00124581 0)
(-0.0238125 0.0182792 0)
(-0.0391192 0.0351491 0)
(-0.0589542 0.0523956 0)
(-0.0824507 0.0698097 0)
(-0.106905 0.0853031 0)
(-0.128843 0.0960317 0)
(-0.145339 0.100096 0)
(-0.157107 0.0991056 0)
(-0.166023 0.0950639 0)
(-0.172418 0.0886694 0)
(-0.17709 0.0807896 0)
(-0.180536 0.0720077 0)
(-0.182581 0.0628758 0)
(-0.183807 0.0535858 0)
(-0.184234 0.0443462 0)
(-0.184349 0.0352948 0)
(-0.184201 0.0265173 0)
(-0.183668 0.0179966 0)
(-0.182833 0.00960134 0)
(-0.181678 0.00123629 0)
(-0.1802 -0.00727687 0)
(-0.178382 -0.016111 0)
(-0.176274 -0.0254966 0)
(-0.173904 -0.0356486 0)
(-0.171298 -0.0467977 0)
(-0.168454 -0.0591323 0)
(-0.165325 -0.0727351 0)
(-0.161753 -0.0874265 0)
(-0.157373 -0.102605 0)
(-0.151487 -0.117004 0)
(-0.142951 -0.128803 0)
(-0.130336 -0.135502 0)
(-0.110792 -0.129924 0)
(-0.0813482 -0.104405 0)
(-0.038563 -0.0528615 0)
(-0.00517287 -0.00237863 0)
(0.00160879 0.0121295 0)
(-0.00361011 -0.0227963 0)
(-0.0118363 -0.00675937 0)
(-0.0235976 0.0132327 0)
(-0.038354 0.033838 0)
(-0.0568224 0.0546169 0)
(-0.0782149 0.0747439 0)
(-0.100691 0.0926646 0)
(-0.12136 0.105812 0)
(-0.137104 0.111883 0)
(-0.147795 0.111591 0)
(-0.155521 0.107657 0)
(-0.160892 0.101147 0)
(-0.16433 0.0928891 0)
(-0.166381 0.0836384 0)
(-0.167336 0.0738035 0)
(-0.167575 0.0637996 0)
(-0.167385 0.0538787 0)
(-0.166878 0.0442232 0)
(-0.166217 0.0348931 0)
(-0.16535 0.0258689 0)
(-0.164297 0.0170967 0)
(-0.163067 0.00846652 0)
(-0.161656 -0.000133037 0)
(-0.160065 -0.00884955 0)
(-0.158307 -0.0178555 0)
(-0.156432 -0.0273471 0)
(-0.154496 -0.0375284 0)
(-0.152567 -0.0486181 0)
(-0.150708 -0.0608307 0)
(-0.148948 -0.074343 0)
(-0.147248 -0.0892143 0)
(-0.145405 -0.105223 0)
(-0.142857 -0.121629 0)
(-0.138481 -0.136726 0)
(-0.130571 -0.147697 0)
(-0.117147 -0.150534 0)
(-0.0959115 -0.137652 0)
(-0.0628669 -0.0986605 0)
(-0.0146822 -0.0244818 0)
(0.00254868 0.0109872 0)
(-0.00641515 -0.0136738 0)
(-0.0180525 0.00611076 0)
(-0.0325478 0.0284299 0)
(-0.0500854 0.0519979 0)
(-0.0698875 0.0750888 0)
(-0.0906981 0.0958255 0)
(-0.110445 0.112046 0)
(-0.126156 0.121183 0)
(-0.136455 0.122554 0)
(-0.143424 0.119183 0)
(-0.148105 0.112847 0)
(-0.150823 0.104403 0)
(-0.152105 0.094706 0)
(-0.152407 0.0843655 0)
(-0.152049 0.0737956 0)
(-0.151347 0.0633347 0)
(-0.150454 0.0531514 0)
(-0.149446 0.043341 0)
(-0.148368 0.033893 0)
(-0.147196 0.0247584 0)
(-0.145942 0.0158617 0)
(-0.144583 0.0070986 0)
(-0.143116 -0.00163665 0)
(-0.14153 -0.010479 0)
(-0.139847 -0.0195818 0)
(-0.138109 -0.0291155 0)
(-0.136388 -0.0392672 0)
(-0.134773 -0.0502432 0)
(-0.133368 -0.06226 0)
(-0.132261 -0.0755217 0)
(-0.131484 -0.0901638 0)
(-0.130936 -0.106155 0)
(-0.130232 -0.123124 0)
(-0.12845 -0.1401 0)
(-0.124045 -0.154968 0)
(-0.115128 -0.16382 0)
(-0.0998861 -0.160572 0)
(-0.0751626 -0.13575 0)
(-0.0331198 -0.0684551 0)
(0.000198235 -0.000165055 0)
(-0.00810812 -0.000859537 0)
(-0.0225719 0.021984 0)
(-0.0389468 0.0458205 0)
(-0.0577274 0.0709633 0)
(-0.0774065 0.0946646 0)
(-0.096514 0.114401 0)
(-0.112786 0.127505 0)
(-0.123429 0.13171 0)
(-0.130316 0.129664 0)
(-0.134683 0.123843 0)
(-0.137168 0.115544 0)
(-0.138113 0.105621 0)
(-0.138084 0.0948875 0)
(-0.137435 0.0838708 0)
(-0.136452 0.0729272 0)
(-0.135338 0.0622819 0)
(-0.134173 0.0520236 0)
(-0.133004 0.0421767 0)
(-0.131835 0.0326933 0)
(-0.130646 0.0235125 0)
(-0.129418 0.0145505 0)
(-0.128115 0.00570295 0)
(-0.126715 -0.00313194 0)
(-0.125206 -0.0120682 0)
(-0.123599 -0.0212373 0)
(-0.121931 -0.0307778 0)
(-0.120268 -0.0408486 0)
(-0.118711 -0.0516331 0)
(-0.117383 -0.0633452 0)
(-0.116417 -0.076224 0)
(-0.115913 -0.0904999 0)
(-0.115867 -0.106311 0)
(-0.116061 -0.123556 0)
(-0.115835 -0.141667 0)
(-0.113795 -0.159163 0)
(-0.108065 -0.172815 0)
(-0.0972909 -0.176589 0)
(-0.0788997 -0.16321 0)
(-0.0495646 -0.114442 0)
(-0.00710415 -0.01509 0)
(-0.00908873 0.0142437 0)
(-0.0251966 0.0394546 0)
(-0.0423374 0.0640297 0)
(-0.0613289 0.0895825 0)
(-0.0800264 0.112826 0)
(-0.0970071 0.130363 0)
(-0.108634 0.138534 0)
(-0.116257 0.139046 0)
(-0.120799 0.134272 0)
(-0.123383 0.126441 0)
(-0.124424 0.116593 0)
(-0.124344 0.105606 0)
(-0.123647 0.0942143 0)
(-0.122594 0.0828378 0)
(-0.121414 0.0717463 0)
(-0.120226 0.0610687 0)
(-0.119076 0.0508309 0)
(-0.117987 0.0410118 0)
(-0.116936 0.0315416 0)
(-0.115889 0.0223444 0)
(-0.114809 0.013329 0)
(-0.113655 0.00440037 0)
(-0.112396 -0.00454186 0)
(-0.111016 -0.0135927 0)
(-0.109514 -0.0228586 0)
(-0.107917 -0.0324514 0)
(-0.106278 -0.0424953 0)
(-0.104684 -0.0531391 0)
(-0.103256 -0.0645676 0)
(-0.102141 -0.0770143 0)
(-0.10148 -0.0907573 0)
(-0.101352 -0.106076 0)
(-0.101685 -0.123138 0)
(-0.102086 -0.141806 0)
(-0.101458 -0.161253 0)
(-0.0978129 -0.178907 0)
(-0.0900881 -0.188305 0)
(-0.0759281 -0.183916 0)
(-0.0533698 -0.149176 0)
(-0.0157513 -0.0431766 0)
(-0.00951088 0.0304854 0)
(-0.0261405 0.0576336 0)
(-0.0430924 0.0822057 0)
(-0.0614517 0.107346 0)
(-0.0787608 0.129081 0)
(-0.0923512 0.142634 0)
(-0.100685 0.146703 0)
(-0.10649 0.144206 0)
(-0.109364 0.137185 0)
(-0.110839 0.127722 0)
(-0.11103 0.116698 0)
(-0.110471 0.10499 0)
(-0.109533 0.0932088 0)
(-0.108422 0.081672 0)
(-0.107305 0.0705639 0)
(-0.106251 0.0599376 0)
(-0.105283 0.0497734 0)
(-0.104394 0.040013 0)
(-0.103545 0.0305703 0)
(-0.102698 0.0213582 0)
(-0.101805 0.0122855 0)
(-0.100828 0.00326405 0)
(-0.0997362 -0.00579807 0)
(-0.0985104 -0.0149825 0)
(-0.0971432 -0.0243749 0)
(-0.095649 -0.0340653 0)
(-0.0940626 -0.0441487 0)
(-0.0924498 -0.05474 0)
(-0.0909112 -0.0659895 0)
(-0.0895831 -0.0781074 0)
(-0.0886208 -0.0913832 0)
(-0.088155 -0.106179 0)
(-0.0882188 -0.122852 0)
(-0.0886291 -0.141579 0)
(-0.0886652 -0.162104 0)
(-0.0864988 -0.182949 0)
(-0.0804831 -0.197509 0)
(-0.0694665 -0.200033 0)
(-0.0498231 -0.1779 0)
(-0.0186006 -0.0918711 0)
(-0.00928071 0.0466864 0)
(-0.0255362 0.0755132 0)
(-0.0416289 0.0995068 0)
(-0.0586969 0.123487 0)
(-0.0742504 0.143047 0)
(-0.0843269 0.152071 0)
(-0.0910802 0.153035 0)
(-0.0952231 0.147863 0)
(-0.0970943 0.139024 0)
(-0.0979097 0.12825 0)
(-0.0976936 0.11636 0)
(-0.0970072 0.10418 0)
(-0.0960921 0.0921854 0)
(-0.0951211 0.0806083 0)
(-0.0942066 0.0695547 0)
(-0.0933842 0.0590186 0)
(-0.0926551 0.0489416 0)
(-0.0919925 0.0392383 0)
(-0.0913547 0.0298126 0)
(-0.0907008 0.0205727 0)
(-0.089988 0.0114311 0)
(-0.0891813 0.00230656 0)
(-0.0882564 -0.0068841 0)
(-0.0871923 -0.0162131 0)
(-0.0859789 -0.0257518 0)
(-0.0846201 -0.0355735 0)
(-0.0831335 -0.0457512 0)
(-0.0815599 -0.0563696 0)
(-0.0799706 -0.0675423 0)
(-0.0784751 -0.0794419 0)
(-0.0772188 -0.0923403 0)
(-0.0763571 -0.106639 0)
(-0.0759937 -0.122837 0)
(-0.0760797 -0.141374 0)
(-0.0762279 -0.162381 0)
(-0.0750437 -0.185228 0)
(-0.0700481 -0.205361 0)
(-0.0616618 -0.212715 0)
(-0.0447027 -0.200055 0)
(-0.0156562 -0.125162 0)
(-0.00856127 0.0622238 0)
(-0.0237475 0.0924959 0)
(-0.0385454 0.115578 0)
(-0.0542221 0.138139 0)
(-0.0671032 0.154206 0)
(-0.074766 0.159636 0)
(-0.0804033 0.157893 0)
(-0.0833404 0.150533 0)
(-0.0846628 0.140221 0)
(-0.0851245 0.128414 0)
(-0.0847963 0.115899 0)
(-0.0841821 0.103414 0)
(-0.0834337 0.0913174 0)
(-0.0826942 0.0797641 0)
(-0.0820315 0.0687926 0)
(-0.0814581 0.0583493 0)
(-0.0809596 0.0483455 0)
(-0.0805022 0.0386792 0)
(-0.0800469 0.02925 0)
(-0.0795579 0.0199668 0)
(-0.0790006 0.0107469 0)
(-0.0783466 0.00151532 0)
(-0.0775775 -0.00780354 0)
(-0.076675 -0.0172766 0)
(-0.0756275 -0.0269666 0)
(-0.0744314 -0.0369368 0)
(-0.0730906 -0.0472459 0)
(-0.0716241 -0.0579572 0)
(-0.0700736 -0.0691529 0)
(-0.0685149 -0.0809652 0)
(-0.0670667 -0.093627 0)
(-0.0658842 -0.107534 0)
(-0.0651158 -0.123271 0)
(-0.0648094 -0.141506 0)
(-0.0647646 -0.162676 0)
(-0.0640309 -0.186636 0)
(-0.0601369 -0.21146 0)
(-0.0530309 -0.224019 0)
(-0.039128 -0.219964 0)
(-0.0137818 -0.157871 0)
(-0.0074697 0.0763587 0)
(-0.0211925 0.108056 0)
(-0.0343793 0.130025 0)
(-0.048349 0.150743 0)
(-0.058485 0.163089 0)
(-0.0645726 0.16585 0)
(-0.0693067 0.161707 0)
(-0.0714115 0.152571 0)
(-0.0724608 0.141068 0)
(-0.0727692 0.128458 0)
(-0.0725006 0.115496 0)
(-0.0720557 0.102818 0)
(-0.0715329 0.09068 0)
(-0.0710447 0.0791746 0)
(-0.0706258 0.0682815 0)
(-0.0702747 0.0579113 0)
(-0.0699694 0.0479542 0)
(-0.0696782 0.0382995 0)
(-0.0693689 0.0288473 0)
(-0.0690138 0.0195095 0)
(-0.0685875 0.0102085 0)
(-0.0680692 0.000873671 0)
(-0.0674456 -0.00856481 0)
(-0.0667024 -0.0181713 0)
(-0.0658278 -0.0280053 0)
(-0.0648133 -0.0381245 0)
(-0.0636529 -0.0485805 0)
(-0.0623485 -0.0594226 0)
(-0.0609169 -0.0707093 0)
(-0.0594022 -0.0825358 0)
(-0.0578901 -0.0950884 0)
(-0.0565163 -0.108726 0)
(-0.0554463 -0.124062 0)
(-0.0547972 -0.141934 0)
(-0.0544892 -0.163106 0)
(-0.0539533 -0.187897 0)
(-0.0512636 -0.215135 0)
(-0.0447468 -0.233925 0)
(-0.0340215 -0.235189 0)
(-0.0113043 -0.182656 0)
(-0.00626536 0.088831 0)
(-0.018115 0.121819 0)
(-0.0294865 0.142527 0)
(-0.0414864 0.161188 0)
(-0.0492015 0.170309 0)
(-0.0545387 0.170979 0)
(-0.0581735 0.164754 0)
(-0.059784 0.154203 0)
(-0.0606905 0.141751 0)
(-0.0609676 0.128523 0)
(-0.0608381 0.115242 0)
(-0.0605928 0.102435 0)
(-0.0602999 0.0902845 0)
(-0.0600406 0.0788242 0)
(-0.0598289 0.0679888 0)
(-0.0596562 0.0576631 0)
(-0.0595009 0.0477246 0)
(-0.0593372 0.0380599 0)
(-0.0591418 0.0285712 0)
(-0.0588956 0.0191745 0)
(-0.0585819 0.00979612 0)
(-0.0581869 0.000368475 0)
(-0.0577019 -0.0091748 0)
(-0.0571162 -0.0188975 0)
(-0.0564191 -0.0288594 0)
(-0.0555995 -0.0391172 0)
(-0.0546448 -0.0497204 0)
(-0.0535447 -0.0607111 0)
(-0.0522972 -0.0721314 0)
(-0.0509205 -0.0840463 0)
(-0.0494696 -0.0965946 0)
(-0.0480531 -0.110081 0)
(-0.0468324 -0.125096 0)
(-0.0459671 -0.142581 0)
(-0.0454699 -0.163609 0)
(-0.0450045 -0.18888 0)
(-0.04309 -0.218031 0)
(-0.0373479 -0.242855 0)
(-0.0296982 -0.249099 0)
(-0.00983982 -0.205855 0)
(-0.00480283 0.0989893 0)
(-0.0147099 0.133503 0)
(-0.0242734 0.153143 0)
(-0.0341399 0.169565 0)
(-0.0399762 0.176198 0)
(-0.0445369 0.175085 0)
(-0.0472889 0.16722 0)
(-0.048604 0.155567 0)
(-0.049428 0.142372 0)
(-0.0497385 0.128675 0)
(-0.0497676 0.115162 0)
(-0.049713 0.102264 0)
(-0.0496227 0.0901056 0)
(-0.0495508 0.0786734 0)
(-0.0495004 0.0678688 0)
(-0.0494615 0.0575596 0)
(-0.0494169 0.0476168 0)
(-0.0493492 0.0379273 0)
(-0.0492436 0.0283961 0)
(-0.0490888 0.0189428 0)
(-0.0488755 0.00949652 0)
(-0.0485961 -8.67506e-06 0)
(-0.0482454 -0.00963758 0)
(-0.0478164 -0.0194548 0)
(-0.0473 -0.0295226 0)
(-0.0466843 -0.0399 0)
(-0.0459532 -0.0506383 0)
(-0.0450881 -0.061778 0)
(-0.0440735 -0.0733511 0)
(-0.0429075 -0.0853988 0)
(-0.0416197 -0.0980169 0)
(-0.0402923 -0.11145 0)
(-0.0390745 -0.126238 0)
(-0.0381556 -0.143359 0)
(-0.0376327 -0.164131 0)
(-0.0372682 -0.189599 0)
(-0.0359953 -0.219759 0)
(-0.0317383 -0.249425 0)
(-0.0250675 -0.260507 0)
(-0.00827252 -0.224099 0)
(-0.0034966 0.107143 0)
(-0.0111879 0.143125 0)
(-0.0189603 0.161839 0)
(-0.0266931 0.176114 0)
(-0.0309583 0.180865 0)
(-0.034748 0.178334 0)
(-0.0367948 0.169225 0)
(-0.0379067 0.15674 0)
(-0.0386713 0.142978 0)
(-0.0390384 0.128932 0)
(-0.039212 0.115246 0)
(-0.0393184 0.102276 0)
(-0.0393897 0.0901018 0)
(-0.0394594 0.0786758 0)
(-0.039526 0.0678762 0)
(-0.039582 0.0575611 0)
(-0.039617 0.0475986 0)
(-0.0396214 0.0378771 0)
(-0.0395885 0.0283043 0)
(-0.0395137 0.0188022 0)
(-0.0393935 0.00930163 0)
(-0.0392252 -0.000262591 0)
(-0.0390068 -0.0099552 0)
(-0.0387344 -0.0198425 0)
(-0.038401 -0.0299904 0)
(-0.0379956 -0.0404624 0)
(-0.0375008 -0.0513149 0)
(-0.0368936 -0.0625907 0)
(-0.0361494 -0.0743176 0)
(-0.0352515 -0.0865182 0)
(-0.0342083 -0.09925 0)
(-0.0330767 -0.112695 0)
(-0.0319861 -0.127325 0)
(-0.0311352 -0.14411 0)
(-0.0306863 -0.164555 0)
(-0.0304873 -0.190089 0)
(-0.0297332 -0.221176 0)
(-0.0266714 -0.254664 0)
(-0.02195 -0.270617 0)
(-0.00717997 -0.241113 0)
(-0.00187898 0.112618 0)
(-0.00760496 0.150511 0)
(-0.0135661 0.168533 0)
(-0.0192985 0.181005 0)
(-0.0222932 0.18446 0)
(-0.0252631 0.180837 0)
(-0.0267302 0.170848 0)
(-0.0276659 0.157764 0)
(-0.0283722 0.143585 0)
(-0.0287914 0.129284 0)
(-0.0290792 0.115465 0)
(-0.0293089 0.10243 0)
(-0.0294986 0.0902285 0)
(-0.0296672 0.0787877 0)
(-0.0298131 0.0679725 0)
(-0.029933 0.0576359 0)
(-0.0300236 0.0476457 0)
(-0.0300831 0.0378918 0)
(-0.0301111 0.0282837 0)
(-0.0301088 0.018745 0)
(-0.0300774 0.00920696 0)
(-0.030018 -0.00039562 0)
(-0.0299313 -0.0101283 0)
(-0.029816 -0.0200595 0)
(-0.0296677 -0.0302593 0)
(-0.0294767 -0.0407971 0)
(-0.0292268 -0.0517358 0)
(-0.0288937 -0.0631245 0)
(-0.0284479 -0.0749908 0)
(-0.027863 -0.0873455 0)
(-0.0271312 -0.100214 0)
(-0.0262889 -0.113719 0)
(-0.0254456 -0.128251 0)
(-0.0247942 -0.144725 0)
(-0.024532 -0.164755 0)
(-0.0245936 -0.190185 0)
(-0.0244402 -0.222051 0)
(-0.0225372 -0.257938 0)
(-0.0189449 -0.278696 0)
(-0.0060885 -0.254974 0)
(-0.000743298 0.116241 0)
(-0.00409258 0.155798 0)
(-0.00822371 0.173306 0)
(-0.0120732 0.184404 0)
(-0.0140012 0.187072 0)
(-0.0160888 0.182646 0)
(-0.0170658 0.17211 0)
(-0.0178227 0.158641 0)
(-0.0184585 0.144182 0)
(-0.0189085 0.129704 0)
(-0.0192741 0.115783 0)
(-0.0195886 0.102686 0)
(-0.0198573 0.0904445 0)
(-0.020089 0.0789718 0)
(-0.0202839 0.0681264 0)
(-0.020444 0.0577597 0)
(-0.0205724 0.0477403 0)
(-0.0206742 0.037959 0)
(-0.0207548 0.0283264 0)
(-0.02082 0.0187664 0)
(-0.0208747 0.00921009 0)
(-0.0209233 -0.000408652 0)
(-0.0209685 -0.0101567 0)
(-0.0210114 -0.0201047 0)
(-0.0210498 -0.030327 0)
(-0.0210765 -0.040899 0)
(-0.0210773 -0.0518914 0)
(-0.0210293 -0.0633612 0)
(-0.0209017 -0.0753403 0)
(-0.0206628 -0.0878323 0)
(-0.0202927 -0.100836 0)
(-0.0198102 -0.11442 0)
(-0.0193049 -0.128894 0)
(-0.0189545 -0.145093 0)
(-0.0189768 -0.164677 0)
(-0.0193944 -0.189863 0)
(-0.0198582 -0.222265 0)
(-0.0189955 -0.26037 0)
(-0.0168237 -0.285704 0)
(-0.00527808 -0.267946 0)
(0.00102644 0.117015 0)
(-0.000585619 0.158947 0)
(-0.00292435 0.176236 0)
(-0.00506956 0.186463 0)
(-0.00600772 0.188679 0)
(-0.00721295 0.183817 0)
(-0.00774043 0.173036 0)
(-0.00829918 0.159371 0)
(-0.00884391 0.14475 0)
(-0.0092959 0.130161 0)
(-0.00970328 0.116163 0)
(-0.0100681 0.103007 0)
(-0.0103829 0.0907156 0)
(-0.0106493 0.0791986 0)
(-0.0108698 0.0683139 0)
(-0.0110515 0.0579141 0)
(-0.0112042 0.0478688 0)
(-0.0113386 0.0380695 0)
(-0.0114653 0.0284266 0)
(-0.0115941 0.0188632 0)
(-0.011733 0.00930961 0)
(-0.011889 -0.000301837 0)
(-0.0120666 -0.0100398 0)
(-0.0122689 -0.0199772 0)
(-0.0124957 -0.0301921 0)
(-0.0127423 -0.0407654 0)
(-0.0129979 -0.0517757 0)
(-0.0132428 -0.0632892 0)
(-0.0134477 -0.0753445 0)
(-0.0135806 -0.0879439 0)
(-0.013613 -0.101068 0)
(-0.0135492 -0.114733 0)
(-0.0134597 -0.129169 0)
(-0.0135017 -0.145117 0)
(-0.0139002 -0.164228 0)
(-0.0147639 -0.189045 0)
(-0.0158615 -0.221726 0)
(-0.0159296 -0.261457 0)
(-0.0148929 -0.291136 0)
(-0.00449026 -0.278788 0)
(0.00214318 0.115716 0)
(0.002766 0.160013 0)
(0.00224219 0.177448 0)
(0.00169027 0.187285 0)
(0.00175551 0.189361 0)
(0.00142829 0.184339 0)
(0.00132278 0.173573 0)
(0.000984771 0.159912 0)
(0.000558596 0.145255 0)
(0.000136203 0.130621 0)
(-0.000280335 0.116574 0)
(-0.000664107 0.103361 0)
(-0.00099681 0.0910136 0)
(-0.001275 0.0794448 0)
(-0.00150309 0.0685168 0)
(-0.0016928 0.0580853 0)
(-0.00185938 0.0480212 0)
(-0.00201884 0.038216 0)
(-0.00218626 0.0285793 0)
(-0.00237491 0.0190326 0)
(-0.00259602 0.00950438 0)
(-0.00285851 -7.47516e-05 0)
(-0.00316915 -0.0097757 0)
(-0.00353242 -0.0196739 0)
(-0.00394955 -0.0298511 0)
(-0.00441841 -0.0403932 0)
(-0.00493141 -0.0513855 0)
(-0.00547288 -0.0629018 0)
(-0.00601993 -0.0749891 0)
(-0.00654492 -0.087653 0)
(-0.0070115 -0.100863 0)
(-0.00741262 -0.114592 0)
(-0.00780249 -0.128995 0)
(-0.0083134 -0.144713 0)
(-0.00916788 -0.163354 0)
(-0.0105503 -0.187701 0)
(-0.0123288 -0.220515 0)
(-0.0132539 -0.261739 0)
(-0.0134838 -0.295706 0)
(-0.00387652 -0.289007 0)
(0.00335059 0.112383 0)
(0.00608844 0.159081 0)
(0.00727893 0.177106 0)
(0.00821722 0.186876 0)
(0.00932665 0.188985 0)
(0.00984268 0.184314 0)
(0.0101843 0.173765 0)
(0.0101124 0.160256 0)
(0.00983524 0.145671 0)
(0.00947477 0.131051 0)
(0.00908097 0.116982 0)
(0.00870442 0.103722 0)
(0.00837507 0.0913176 0)
(0.00810203 0.0796931 0)
(0.00787986 0.0687208 0)
(0.00769313 0.0582617 0)
(0.00752177 0.0481885 0)
(0.0073449 0.0383922 0)
(0.00714305 0.0287801 0)
(0.00689933 0.0192716 0)
(0.00659961 0.0097928 0)
(0.00623266 0.000271713 0)
(0.00578982 -0.00936464 0)
(0.00526538 -0.0191942 0)
(0.00465632 -0.0293016 0)
(0.0039624 -0.0397772 0)
(0.00318882 -0.0507123 0)
(0.00234558 -0.0621891 0)
(0.00144854 -0.0742632 0)
(0.000517444 -0.0869431 0)
(-0.000408867 -0.100186 0)
(-0.00131606 -0.113947 0)
(-0.00224277 -0.128307 0)
(-0.00329218 -0.143801 0)
(-0.0046754 -0.161967 0)
(-0.00663005 -0.185762 0)
(-0.00913448 -0.218538 0)
(-0.0107907 -0.260907 0)
(-0.012226 -0.299065 0)
(-0.0032669 -0.297732 0)
(0.0046672 0.106505 0)
(0.0094139 0.156137 0)
(0.0122195 0.175217 0)
(0.0145416 0.185255 0)
(0.0167192 0.187649 0)
(0.0180518 0.183624 0)
(0.0189039 0.1736 0)
(0.0191391 0.160375 0)
(0.0190488 0.145967 0)
(0.01879 0.131425 0)
(0.018452 0.117363 0)
(0.0181076 0.104066 0)
(0.0178017 0.0916065 0)
(0.0175497 0.0799279 0)
(0.0173464 0.0689146 0)
(0.0171735 0.0584347 0)
(0.0170067 0.0483633 0)
(0.0168207 0.0385909 0)
(0.0165917 0.0290226 0)
(0.0162994 0.0195749 0)
(0.0159267 0.0101708 0)
(0.0154596 0.000735335 0)
(0.0148876 -0.00880765 0)
(0.0142037 -0.0185388 0)
(0.0134028 -0.0285455 0)
(0.0124829 -0.03892 0)
(0.0114446 -0.0497568 0)
(0.0102911 -0.0611443 0)
(0.00903294 -0.0731483 0)
(0.00768761 -0.085786 0)
(0.00627768 -0.0990081 0)
(0.00482189 -0.112756 0)
(0.00330801 -0.127047 0)
(0.00165446 -0.142314 0)
(-0.000328779 -0.160003 0)
(-0.00292153 -0.183193 0)
(-0.00623307 -0.215859 0)
(-0.00851707 -0.259246 0)
(-0.0112656 -0.301752 0)
(-0.00273785 -0.305999 0)
(0.0059486 0.0985078 0)
(0.0126805 0.151265 0)
(0.0170563 0.17186 0)
(0.0206845 0.182484 0)
(0.0239657 0.185336 0)
(0.0260098 0.18221 0)
(0.0274915 0.173059 0)
(0.028102 0.160232 0)
(0.0282467 0.1461 0)
(0.0281362 0.131702 0)
(0.0278927 0.117683 0)
(0.0276129 0.10437 0)
(0.0273558 0.0918643 0)
(0.0271434 0.0801359 0)
(0.0269727 0.0690861 0)
(0.0268245 0.058593 0)
(0.0266716 0.0485354 0)
(0.0264849 0.0388031 0)
(0.0262369 0.0292987 0)
(0.0259036 0.0199352 0)
(0.0254646 0.0106322 0)
(0.0249035 0.00131118 0)
(0.0242076 -0.00810769 0)
(0.0233679 -0.0177078 0)
(0.022377 -0.0275785 0)
(0.0212293 -0.0378149 0)
(0.0199213 -0.0485141 0)
(0.0184523 -0.0597671 0)
(0.016825 -0.0716423 0)
(0.0150447 -0.0841645 0)
(0.0131262 -0.0972994 0)
(0.0110902 -0.110971 0)
(0.00893736 -0.125157 0)
(0.0066188 -0.140184 0)
(0.00396955 -0.157384 0)
(0.000674736 -0.179912 0)
(-0.00352817 -0.212381 0)
(-0.00636504 -0.256745 0)
(-0.0106361 -0.303109 0)
(-0.00192412 -0.313265 0)
(0.0071288 0.0883787 0)
(0.0158302 0.144458 0)
(0.0217525 0.167052 0)
(0.0266166 0.178575 0)
(0.0309618 0.182241 0)
(0.0337577 0.179926 0)
(0.035901 0.171999 0)
(0.0370044 0.159762 0)
(0.0374541 0.146012 0)
(0.0375506 0.131831 0)
(0.0374541 0.117905 0)
(0.0372814 0.104603 0)
(0.0371044 0.0920675 0)
(0.0369549 0.0802992 0)
(0.0368345 0.069222 0)
(0.0367252 0.0587262 0)
(0.0365982 0.0486956 0)
(0.0364217 0.0390204 0)
(0.0361649 0.0296007 0)
(0.0358 0.0203457 0)
(0.0353036 0.0111707 0)
(0.0346562 0.00199339 0)
(0.0338426 -0.00726974 0)
(0.0328511 -0.0167045 0)
(0.0316713 -0.0264014 0)
(0.0302945 -0.0364573 0)
(0.0287134 -0.0469707 0)
(0.0269205 -0.0580354 0)
(0.0249083 -0.0697248 0)
(0.0226736 -0.0820686 0)
(0.0202228 -0.0950364 0)
(0.0175684 -0.108555 0)
(0.0147208 -0.12258 0)
(0.0116789 -0.137348 0)
(0.00829719 -0.154053 0)
(0.00423351 -0.175881 0)
(-0.000956672 -0.208105 0)
(-0.00432665 -0.253499 0)
(-0.0101437 -0.30363 0)
(-0.00121369 -0.320226 0)
(0.00814028 0.0762113 0)
(0.0187541 0.135808 0)
(0.0262024 0.160862 0)
(0.0322579 0.173584 0)
(0.0374739 0.178333 0)
(0.0413292 0.176843 0)
(0.0440833 0.170245 0)
(0.0458097 0.158871 0)
(0.0466644 0.145634 0)
(0.0470485 0.131752 0)
(0.0471679 0.117976 0)
(0.0471584 0.104724 0)
(0.0471065 0.0921847 0)
(0.0470547 0.0803952 0)
(0.0470113 0.0693049 0)
(0.0469614 0.05882 0)
(0.0468772 0.0488318 0)
(0.0467254 0.0392317 0)
(0.0464726 0.0299178 0)
(0.0460881 0.0207957 0)
(0.045545 0.0117767 0)
(0.0448212 0.00277408 0)
(0.0438976 -0.00629952 0)
(0.0427595 -0.0155318 0)
(0.0413929 -0.0250148 0)
(0.0397849 -0.0348464 0)
(0.0379232 -0.0451247 0)
(0.0357936 -0.0559418 0)
(0.0333803 -0.0673724 0)
(0.0306684 -0.0794556 0)
(0.0276484 -0.0921733 0)
(0.02433 -0.105461 0)
(0.020737 -0.119259 0)
(0.0169038 -0.133731 0)
(0.0127217 -0.149941 0)
(0.00781099 -0.17105 0)
(0.00157199 -0.202988 0)
(-0.0022181 -0.249383 0)
(-0.00946088 -0.303253 0)
(-0.000301194 -0.326465 0)
(0.00880759 0.0621129 0)
(0.0212831 0.125263 0)
(0.0301864 0.153235 0)
(0.0374356 0.167503 0)
(0.0435688 0.17345 0)
(0.0484144 0.173063 0)
(0.0519364 0.167684 0)
(0.0544027 0.157428 0)
(0.0558086 0.144861 0)
(0.056599 0.131379 0)
(0.0570326 0.117823 0)
(0.0572687 0.104673 0)
(0.0574089 0.092169 0)
(0.0575072 0.0803874 0)
(0.0575812 0.069307 0)
(0.0576221 0.0588527 0)
(0.0576052 0.0489258 0)
(0.0574981 0.0394212 0)
(0.0572663 0.0302362 0)
(0.0568772 0.021273 0)
(0.0563004 0.0124393 0)
(0.0555113 0.00364404 0)
(0.054487 -0.00520379 0)
(0.0532082 -0.0141931 0)
(0.051657 -0.0234176 0)
(0.0498152 -0.0329753 0)
(0.0476642 -0.0429624 0)
(0.0451822 -0.0534692 0)
(0.0423434 -0.064569 0)
(0.0391205 -0.0763046 0)
(0.0354932 -0.088671 0)
(0.0314667 -0.101629 0)
(0.0270612 -0.115129 0)
(0.0223636 -0.129265 0)
(0.0172879 -0.144962 0)
(0.0114231 -0.165351 0)
(0.00409865 -0.196996 0)
(-6.52586e-05 -0.244509 0)
(-0.0093591 -0.301827 0)
(0.000554114 -0.332526 0)
(0.00886326 0.0465426 0)
(0.023074 0.11302 0)
(0.0334382 0.144232 0)
(0.0419137 0.160341 0)
(0.0490332 0.167562 0)
(0.054826 0.168423 0)
(0.0593126 0.164241 0)
(0.0626265 0.155267 0)
(0.0647623 0.143545 0)
(0.066123 0.130589 0)
(0.0670087 0.117344 0)
(0.0676064 0.104367 0)
(0.0680341 0.0919531 0)
(0.0683595 0.0802228 0)
(0.0686116 0.0691869 0)
(0.0687905 0.0587922 0)
(0.0688777 0.0489526 0)
(0.0688442 0.0395688 0)
(0.0686568 0.0305388 0)
(0.068282 0.021763 0)
(0.0676872 0.0131464 0)
(0.0668456 0.00459319 0)
(0.0657302 -0.0039897 0)
(0.0643161 -0.0126918 0)
(0.0625808 -0.0216082 0)
(0.0605002 -0.0308362 0)
(0.0580474 -0.0404685 0)
(0.0551919 -0.0505919 0)
(0.0518973 -0.061277 0)
(0.0481252 -0.0725714 0)
(0.0438427 -0.0844853 0)
(0.0390515 -0.0970064 0)
(0.0337661 -0.110109 0)
(0.0281251 -0.12386 0)
(0.0220493 -0.139026 0)
(0.0151546 -0.158667 0)
(0.00668847 -0.189946 0)
(0.00224055 -0.238695 0)
(-0.00918485 -0.299684 0)
(0.00168349 -0.338078 0)
(0.00747863 0.030137 0)
(0.0236597 0.0989068 0)
(0.0355554 0.133607 0)
(0.0453751 0.152021 0)
(0.0535919 0.160699 0)
(0.0603825 0.162773 0)
(0.0659188 0.159835 0)
(0.0702464 0.152203 0)
(0.0733228 0.14149 0)
(0.0754669 0.129206 0)
(0.0769931 0.116391 0)
(0.078113 0.103683 0)
(0.0789624 0.0914372 0)
(0.079625 0.0798218 0)
(0.0801436 0.0688822 0)
(0.0805303 0.0585901 0)
(0.080776 0.0488747 0)
(0.0808583 0.0396452 0)
(0.0807479 0.0308026 0)
(0.0804123 0.0222475 0)
(0.0798196 0.0138838 0)
(0.0789391 0.00561085 0)
(0.0777418 -0.0026637 0)
(0.0761964 -0.0110288 0)
(0.0742748 -0.0195819 0)
(0.0719461 -0.0284171 0)
(0.0691737 -0.0376222 0)
(0.065917 -0.0472801 0)
(0.0621288 -0.0574575 0)
(0.0577599 -0.0682071 0)
(0.0527669 -0.0795552 0)
(0.0471505 -0.0915259 0)
(0.0409163 -0.104127 0)
(0.0342445 -0.117424 0)
(0.0270663 -0.132036 0)
(0.019046 -0.150922 0)
(0.00934036 -0.181809 0)
(0.00465156 -0.231787 0)
(-0.00946209 -0.296798 0)
(0.00292443 -0.343342 0)
(0.00393866 0.0157474 0)
(0.0222368 0.0834694 0)
(0.0361333 0.121349 0)
(0.0474767 0.142379 0)
(0.0569209 0.152782 0)
(0.0647865 0.156049 0)
(0.071452 0.154299 0)
(0.0769678 0.148022 0)
(0.0812199 0.138463 0)
(0.0844071 0.127018 0)
(0.0868115 0.114779 0)
(0.0886619 0.102461 0)
(0.0901116 0.0904871 0)
(0.091261 0.0790742 0)
(0.0921688 0.0683048 0)
(0.092862 0.058177 0)
(0.0933442 0.0486383 0)
(0.0936023 0.0396093 0)
(0.0936153 0.0309963 0)
(0.0933527 0.0227034 0)
(0.0927879 0.0146344 0)
(0.0918851 0.00668572 0)
(0.0906139 -0.00123066 0)
(0.0889394 -0.00920301 0)
(0.0868259 -0.0173303 0)
(0.0842347 -0.0257007 0)
(0.0811192 -0.0343966 0)
(0.0774277 -0.0434962 0)
(0.0731022 -0.0530627 0)
(0.0680849 -0.0631562 0)