/*--------------------------------*- C++ -*----------------------------------*\
  =========                 |
  \\      /  F ield         | OpenFOAM: The Open Source CFD Toolbox
   \\    /   O peration     | Website:  https://openfoam.org
    \\  /    A nd           | Version:  12
     \\/     M anipulation  |
\*---------------------------------------------------------------------------*/
FoamFile
{
    format      ascii;
    class       volScalarField;
    location    "2.5";
    object      epsilon;
}
// * * * * * * * * * * * * * * * * * * * * * * * * * * * * * * * * * * * * * //

dimensions      [0 2 -3 0 0 0 0];

internalField   nonuniform List<scalar> 
1600
(
1.56017e-05
7.1061e-05
0.000149623
0.000219749
0.000286392
0.000350578
0.000406955
0.00044851
0.000482034
0.000506811
0.000544403
0.00062365
0.000764624
0.000982452
0.00122891
0.00151288
0.00183579
0.00215463
0.00247334
0.00280261
0.00314628
0.00351622
0.00392252
0.00438273
0.00492868
0.00555832
0.00609741
0.00663077
0.00703931
0.00727397
0.00735858
0.00710894
0.00643041
0.00530694
0.00377036
0.00214093
0.000930695
0.000348358
0.000102098
1.94617e-05
7.64001e-05
7.20083e-05
0.000102001
0.000149364
0.000208788
0.000283176
0.000379398
0.000505374
0.00066618
0.000872201
0.00115754
0.00162189
0.00230016
0.00277841
0.00296066
0.00302751
0.00305706
0.00307012
0.00309474
0.00314221
0.00322184
0.0033386
0.00347178
0.0036324
0.00382905
0.00406435
0.00432585
0.0046056
0.00488936
0.00511015
0.00521207
0.00521904
0.00490594
0.00425171
0.00315558
0.00190587
0.000826215
0.00032564
0.000109381
5.69867e-05
0.000193833
0.000142274
0.000178663
0.000255209
0.000369846
0.000533789
0.000766887
0.00110437
0.00159068
0.00223121
0.00279519
0.00300284
0.00301631
0.00287863
0.00281032
0.00273132
0.00261016
0.00252339
0.00247147
0.00245097
0.00244929
0.00248984
0.0025683
0.00268497
0.00282115
0.00298687
0.0031794
0.00340007
0.00364851
0.00391448
0.00417929
0.00434517
0.00440045
0.00416528
0.00362256
0.00254517
0.00105536
0.000321616
0.000107894
7.57649e-05
0.000373023
0.000247788
0.000309991
0.000443388
0.000652375
0.000960033
0.00139449
0.00195709
0.00256094
0.00287778
0.00295484
0.00288869
0.00271771
0.00246135
0.00226253
0.00210808
0.00201801
0.00197385
0.00195764
0.00195735
0.00199405
0.00204994
0.00212554
0.00221684
0.00232351
0.00244616
0.00258639
0.00274574
0.00292467
0.00312151
0.00333537
0.00354719
0.00376318
0.00387351
0.00384672
0.00345747
0.00194628
0.000476773
0.000118745
7.20209e-05
0.000640946
0.000398867
0.000498336
0.000713214
0.00104182
0.0014942
0.0020472
0.00256774
0.00279806
0.00283719
0.0027276
0.00243006
0.00212492
0.00193991
0.00180366
0.0017301
0.00169787
0.00168902
0.00170149
0.00174126
0.00179566
0.00186253
0.00193898
0.00202502
0.00212202
0.00223173
0.00235748
0.00250196
0.00266537
0.00284514
0.00304027
0.00323643
0.003432
0.00364139
0.00381461
0.00385319
0.00334324
0.00108479
0.000194734
7.84323e-05
0.000983966
0.000595421
0.000741195
0.0010464
0.00147877
0.00200116
0.00248826
0.00270197
0.00273275
0.00258346
0.00223113
0.00193413
0.0017312
0.00161203
0.00155087
0.00152715
0.0015233
0.00154644
0.00158846
0.00164354
0.00170688
0.00177789
0.00185584
0.00194207
0.00203859
0.00214828
0.00227557
0.00242425
0.00259735
0.00279232
0.00299108
0.00318686
0.00336901
0.00354953
0.0037526
0.0038841
0.00388751
0.00247282
0.000443525
0.00011141
0.00137299
0.000827578
0.00101935
0.00140101
0.00188624
0.00237574
0.00261565
0.00265502
0.00250421
0.00214556
0.00182574
0.00161027
0.0014865
0.00142823
0.00140646
0.00140334
0.00142429
0.00146227
0.00150908
0.00156264
0.00162186
0.00168754
0.00176094
0.00184474
0.00194242
0.00205856
0.00219864
0.00236763
0.00256865
0.00280016
0.0030564
0.00331343
0.00351313
0.00366227
0.0037784
0.00392803
0.00399601
0.00356432
0.000982116
0.000201134
0.0017796
0.00107604
0.00130266
0.00173297
0.00221874
0.00252804
0.00260332
0.00250182
0.00216122
0.00180187
0.0015509
0.00140775
0.00133945
0.00131237
0.00130603
0.00131577
0.00134343
0.00137669
0.00141409
0.00145549
0.00150186
0.00155524
0.00161826
0.00169452
0.00178863
0.00190647
0.00205529
0.002243
0.00247656
0.00275811
0.00307959
0.00342958
0.0037694
0.0039809
0.00408666
0.00413578
0.00415712
0.00394538
0.00192528
0.000402
0.00216757
0.00131787
0.00156065
0.00200956
0.00241584
0.00256504
0.00253755
0.00225932
0.00187017
0.00155707
0.00137034
0.00127879
0.00123827
0.00122436
0.00122252
0.0012341
0.00125351
0.00127344
0.00129559
0.00132102
0.00135203
0.00139139
0.00144228
0.0015086
0.00159527
0.00170886
0.00185802
0.00205349
0.00230708
0.00262855
0.00301887
0.00345966
0.00392683
0.00430003
0.00447007
0.00452424
0.00451523
0.00432831
0.00331494
0.000994125
0.00251353
0.00153224
0.00177045
0.00220479
0.00249424
0.00255097
0.00240172
0.00202933
0.00164687
0.00138656
0.00125017
0.0011854
0.00115687
0.00114616
0.00114359
0.00114676
0.00115273
0.00115744
0.00116408
0.00117451
0.0011917
0.00121869
0.00125846
0.00131461
0.00139186
0.00149679
0.00163876
0.00183052
0.00208823
0.00242949
0.00286759
0.00339915
0.00398502
0.00458766
0.00489228
0.00498835
0.00495754
0.00470018
0.00417681
0.0019801
0.00278625
0.00170279
0.00191688
0.00231238
0.00250219
0.002504
0.00224452
0.00183737
0.00148271
0.00126775
0.00116166
0.00110978
0.00108451
0.00107166
0.00106306
0.00105572
0.00104772
0.00103869
0.00103337
0.00103197
0.001038
0.00105519
0.00108585
0.00113289
0.00120047
0.00129476
0.00142502
0.00160494
0.00185366
0.00219559
0.00265676
0.00325418
0.00397412
0.00474328
0.00532489
0.00552957
0.00553068
0.005193
0.00464696
0.00305156
0.00297241
0.00182187
0.00200055
0.00234071
0.00247922
0.00241465
0.00209794
0.00168555
0.00136251
0.00118021
0.00109032
0.00104438
0.00101883
0.00100105
0.000984307
0.000966273
0.000946689
0.000927197
0.000911255
0.000903348
0.000901702
0.000910954
0.000934509
0.000973949
0.00103278
0.00111642
0.00123349
0.00139755
0.00162904
0.00195693
0.00241766
0.00304686
0.00385736
0.00479886
0.00570866
0.00611357
0.00615905
0.00577834
0.00528477
0.00408284
0.00306857
0.00188871
0.00201937
0.00231894
0.00242154
0.00231307
0.00197146
0.00156914
0.00127376
0.00111197
0.00103092
0.000986866
0.000958736
0.000935142
0.0009106
0.000883753
0.000855562
0.000828542
0.000805889
0.000791982
0.000786859
0.000789995
0.000808001
0.000841368
0.000892846
0.000967007
0.00107149
0.00121897
0.00142986
0.00173559
0.0021808
0.00281965
0.0036967
0.00480065
0.00599803
0.00672309
0.00687561
0.00642692
0.005731
0.00500812
0.00305275
0.00189842
0.00200027
0.00226012
0.00233647
0.00221042
0.0018663
0.00148195
0.00120808
0.00105796
0.000980672
0.000936134
0.000904627
0.000875759
0.000844984
0.000811785
0.000777882
0.000746017
0.000719153
0.000700854
0.000693126
0.000692768
0.000706344
0.000734929
0.000780528
0.000846868
0.000940446
0.00107258
0.00126258
0.00154228
0.00196111
0.00258776
0.00349715
0.00472495
0.00618155
0.00731772
0.00765877
0.0071963
0.00636737
0.00593974
0.00299421
0.00188359
0.00194784
0.00216841
0.00223671
0.00211159
0.00178156
0.00141841
0.00115985
0.001015
0.000938257
0.000892012
0.00085725
0.000824292
0.000789235
0.000752117
0.00071492
0.000680364
0.000651177
0.000629878
0.000619753
0.000617751
0.000627877
0.000652713
0.000693763
0.000754015
0.000838799
0.000957858
0.00112878
0.00138234
0.0017701
0.00237132
0.00328817
0.00460453
0.00628263
0.00787784
0.00849009
0.00802061
0.00700805
0.00682961
0.00287008
0.0018426
0.00186291
0.00205917
0.00212774
0.00201793
0.00171471
0.00137516
0.00112734
0.00098264
0.000903378
0.000854563
0.000817027
0.000781329
0.000743913
0.000704951
0.0006664
0.000630809
0.000600622
0.000577856
0.000565838
0.000562637
0.000570286
0.000592211
0.000629837
0.00068559
0.000763688
0.000872224
0.00102675
0.00125601
0.00161153
0.00217926
0.00308452
0.00445955
0.00632654
0.00837692
0.00936005
0.00900817
0.00771925
0.00774354
0.00269317
0.00177507
0.00176406
0.00193919
0.00201384
0.00192887
0.00166196
0.00134747
0.00110588
0.000958832
0.000876044
0.000823994
0.000784035
0.000746774
0.00070858
0.000669438
0.000631084
0.000595798
0.000565733
0.000542653
0.000529312
0.000525148
0.000531074
0.000550802
0.000585966
0.000638616
0.000711936
0.000812355
0.000953358
0.00116108
0.00148543
0.00201552
0.00289485
0.00430413
0.0063419
0.00878932
0.0102435
0.0100714
0.00847486
0.00864444
0.00248552
0.00169378
0.00165891
0.00181308
0.00189781
0.00184311
0.00161957
0.00133444
0.00110149
0.000947008
0.000855879
0.000800071
0.000758067
0.000720059
0.000682193
0.000644086
0.000607099
0.000573177
0.000544187
0.000521689
0.000507804
0.000503101
0.000508479
0.000527192
0.000561258
0.000612415
0.000682675
0.000776443
0.000904974
0.00109416
0.00138968
0.00188092
0.00272426
0.00414462
0.00633076
0.00913514
0.0111494
0.0112268
0.00935344
0.00957763
0.00226264
0.00161048
0.00155243
0.00168548
0.00178199
0.00175915
0.0015829
0.00133188
0.00110623
0.000948276
0.000847951
0.000783587
0.000738507
0.000700141
0.000663328
0.000627075
0.000592287
0.000560527
0.000533347
0.000512122
0.000498453
0.000493773
0.000499393
0.000517752
0.000551508
0.000602086
0.000670707
0.000760367
0.000879875
0.00105101
0.00132064
0.00177374
0.00257439
0.00398401
0.00627729
0.00941039
0.01206
0.0124463
0.0103116
0.0105106
0.00207141
0.00153209
0.00144926
0.00156007
0.00166656
0.00167439
0.00154881
0.00133462
0.00111994
0.00095729
0.000850487
0.00077987
0.000728392
0.000687485
0.000651214
0.000617049
0.000584982
0.000555963
0.000530979
0.000511248
0.000498268
0.000493968
0.000499387
0.000517136
0.000550869
0.000601264
0.000669109
0.000756578
0.000870959
0.00102881
0.00127387
0.00169052
0.00244526
0.00382954
0.00620376
0.00964021
0.0129452
0.0137554
0.0113914
0.0114758
0.00188958
0.00145817
0.0013535
0.00144044
0.00155091
0.0015868
0.00151112
0.00134115
0.00114553
0.000979444
0.000861923
0.000784085
0.000728987
0.000685664
0.000648542
0.000615288
0.000584916
0.000557283
0.000533741
0.000515569
0.000504391
0.000502174
0.000508491
0.000527173
0.000562383
0.000613766
0.000681236
0.000765658
0.000873009
0.00102088
0.00124405
0.00162644
0.00233377
0.00367968
0.00610767
0.00982559
0.0137994
0.0151394
0.0125741
0.012446
0.00171194
0.00138805
0.00126552
0.00132841
0.00143728
0.00149682
0.0014634
0.00134537
0.00117698
0.00101654
0.000888905
0.00079888
0.000736682
0.000689933
0.000651606
0.0006183
0.00058868
0.000562826
0.000541476
0.000525685
0.000516943
0.000517275
0.000525258
0.000546279
0.000583707
0.000636453
0.000703743
0.000785551
0.000886573
0.00102194
0.00122664
0.00157703
0.0022362
0.0035324
0.00598754
0.00996697
0.0146081
0.016597
0.0138954
0.0134418
0.00153963
0.00131912
0.00118484
0.00122595
0.00132659
0.00140418
0.00140686
0.00134129
0.00121065
0.00106384
0.000934125
0.000832493
0.000758073
0.000704441
0.000662743
0.000628317
0.000599136
0.000574929
0.000555743
0.000542206
0.000536379
0.000538897
0.000549681
0.000573951
0.000613404
0.000666928
0.000733245
0.000811828
0.000906579
0.00103112
0.00121762
0.00153766
0.00214913
0.00338638
0.00584177
0.0100495
0.0153544
0.0181033
0.0153611
0.0144409
0.00137614
0.00124968
0.0011108
0.00113361
0.00122025
0.00130849
0.00134406
0.00131938
0.00123584
0.00111346
0.000991957
0.00088663
0.00080273
0.000738036
0.000689047
0.000651039
0.000620961
0.000597161
0.000579151
0.000567497
0.00056468
0.000569074
0.000582487
0.000609649
0.00064996
0.000702717
0.000766459
0.000840575
0.000928534
0.00104268
0.001212
0.00150348
0.00206842
0.0032395
0.00566766
0.01008
0.0160286
0.0196322
0.0169934
0.0154541
0.00122491
0.00117969
0.00104188
0.00105035
0.00112019
0.00121185
0.00127234
0.00127866
0.00123861
0.00115814
0.00105531
0.000954858
0.000867367
0.000795705
0.000739081
0.000694954
0.000660847
0.00063499
0.000616508
0.000605451
0.000604321
0.000609714
0.000624425
0.000652047
0.00069099
0.000740608
0.000799662
0.000867787
0.000948353
0.00105178
0.0012057
0.0014705
0.00198939
0.00308801
0.00545936
0.0100465
0.0166204
0.0211652
0.0187929
0.0164626
0.00108974
0.00110331
0.000981186
0.000975477
0.00102807
0.00111683
0.00119217
0.00122992
0.00122516
0.00118469
0.00111065
0.00102669
0.000944606
0.000871557
0.000810186
0.000760507
0.00072146
0.000691868
0.000670886
0.000658239
0.000655814
0.000660573
0.000673731
0.00069833
0.000732803
0.000776557
0.000828815
0.000889466
0.000961318
0.00105555
0.00119591
0.00143573
0.00190903
0.00292933
0.00521423
0.00989778
0.0170946
0.0226939
0.0207429
0.0174678
0.000972266
0.00102687
0.000922411
0.000906444
0.000945441
0.00102599
0.0011075
0.00116688
0.00119243
0.00118168
0.00114796
0.00108781
0.00102062
0.000954165
0.000893604
0.000841439
0.000798447
0.000764555
0.000739431
0.000722877
0.000715502
0.000717414
0.000725658
0.000743309
0.000770445
0.000806103
0.000849193
0.000900851
0.000966103
0.00105314
0.0011809
0.00139749
0.0018258
0.0027626
0.00493483
0.00964036
0.0173714
0.0241671
0.0228396
0.0184509
0.000872389
0.000950209
0.000864526
0.000842868
0.000872091
0.000941292
0.00102258
0.00109393
0.00114253
0.00116314
0.00115204
0.00112556
0.00107966
0.00102707
0.000973709
0.000923693
0.00087943
0.000842138
0.000812335
0.000790254
0.0007761
0.000770484
0.000772787
0.00078143
0.000798919
0.000824039
0.000858056
0.000903368
0.000962581
0.00104258
0.00115992
0.00135576
0.00174013
0.00258858
0.00461845
0.00926585
0.0174729
0.025539
0.0250605
0.0194102
0.000789182
0.000873473
0.000806684
0.000783955
0.00080658
0.000864867
0.000941533
0.00101699
0.00107926
0.00112124
0.00113873
0.00113038
0.00111037
0.00107557
0.0010341
0.000990532
0.00094826
0.000909568
0.000875886
0.000848114
0.000826873
0.000812573
0.000805691
0.000806894
0.000813921
0.000829933
0.000856746
0.000895518
0.00094951
0.00102468
0.00113434
0.00131252
0.00165488
0.00241179
0.00426952
0.00875907
0.0173599
0.02674
0.0273621
0.0203295
0.000720939
0.000796964
0.000748177
0.000728737
0.0007478
0.000797612
0.000867641
0.000941813
0.00100984
0.00106413
0.00110132
0.00111635
0.00110993
0.0010929
0.00106459
0.00102977
0.000992027
0.000954173
0.000918363
0.000886235
0.000858929
0.000837408
0.000822402
0.000815122
0.000816781
0.000825348
0.000844928
0.000879043
0.000929958
0.00100272
0.00110779
0.00127205
0.00157557
0.00224103
0.00390423
0.00813239
0.0168728
0.0276555
0.0297058
0.021208
0.000666124
0.000721643
0.000688766
0.000676301
0.000694815
0.000739704
0.000803217
0.000873255
0.000941459
0.0010009
0.0010469
0.00107722
0.00108928
0.00108356
0.0010662
0.00103869
0.00100611
0.000970746
0.000934907
0.00090064
0.000869675
0.000843495
0.000823436
0.000810662
0.000807897
0.000812865
0.000828179
0.000859754
0.000910367
0.000984283
0.00108952
0.0012457
0.00151402
0.00208923
0.00354524
0.00742724
0.016083
0.0282016
0.0320058
0.0220367
0.000622971
0.000648548
0.000628138
0.000625904
0.000646881
0.000691116
0.000749855
0.000815103
0.00088038
0.000939911
0.000989094
0.00102492
0.0010457
0.00105094
0.00104497
0.0010275
0.000999466
0.000966758
0.000932145
0.000897951
0.000866102
0.000838273
0.000816054
0.000801065
0.000796797
0.000801271
0.000816461
0.000848959
0.000901792
0.000978677
0.00108646
0.00124026
0.00148766
0.00199244
0.00323075
0.00669981
0.015091
0.0284481
0.0341452
0.0228248
0.000591373
0.000579473
0.000567394
0.000576653
0.000605293
0.000651985
0.000708925
0.000770718
0.000832448
0.00088957
0.000938179
0.000975432
0.000999633
0.00100978
0.00100709
0.0009969
0.000976387
0.000949172
0.000918884
0.000888034
0.000858891
0.000833584
0.000813747
0.000801429
0.000799867
0.000806205
0.000824794
0.000862352
0.00092085
0.00100522
0.00112195
0.00128237
0.00151884
0.00197019
0.00306796
0.0061016
0.0139595
0.0285187
0.0359572
0.023588
0.000581242
0.000514537
0.000508487
0.000529883
0.00057077
0.000624308
0.000685413
0.000747972
0.000808345
0.000863465
0.000910639
0.000947721
0.00097337
0.000987045
0.00098813
0.000982289
0.000968528
0.000948209
0.000923999
0.000898819
0.000875378
0.000856182
0.000842873
0.000838612
0.000843492
0.000858662
0.000889576
0.00093853
0.00101
0.00111072
0.00124801
0.00143331
0.00168896
0.00211941
0.00310069
0.00585703
0.013298
0.0285306
0.0371184
0.0243912
0.000598841
0.000456342
0.000452836
0.000491739
0.000555003
0.000624214
0.00069195
0.000758337
0.000820999
0.00087768
0.000926398
0.000965555
0.000994214
0.00101217
0.00101946
0.00101854
0.00101315
0.00100222
0.000989453
0.000977315
0.000968061
0.000965054
0.000968351
0.000980324
0.00100571
0.00104474
0.0011011
0.00117912
0.00128462
0.0014254
0.00161158
0.00186289
0.00219687
0.00269794
0.00370427
0.0062614
0.0131758
0.0287881
0.0376375
0.0252965
0.000657212
0.00041065
0.00042078
0.000493201
0.000576257
0.000663401
0.000749799
0.000832093
0.000908658
0.000978305
0.00104009
0.00109312
0.00113707
0.00117222
0.0011994
0.00121995
0.00123754
0.00125353
0.00127053
0.00129121
0.00131832
0.0013552
0.0014036
0.0014666
0.00154867
0.00165257
0.00178372
0.00194859
0.00215573
0.00242021
0.00275532
0.00319352
0.00374859
0.00457859
0.00585875
0.00864498
0.0151866
0.0302969
0.0378327
0.0257921
0.000753589
0.000414692
0.00045962
0.000584203
0.000728727
0.000877485
0.00102526
0.00116802
0.0013043
0.00143365
0.00155567
0.00167054
0.00177926
0.0018831
0.00198412
0.00208439
0.00218773
0.00229778
0.00241851
0.00255382
0.00270894
0.00288822
0.00309736
0.00334077
0.00362708
0.00396122
0.00435449
0.00481667
0.00536172
0.00601822
0.00679111
0.00778113
0.00889269
0.0105081
0.0124449
0.0159563
0.0219543
0.0347026
0.0385138
0.0260121
0.000994694
0.00053206
0.000794809
0.00118352
0.00159476
0.00201554
0.00244378
0.00287354
0.00330086
0.00372388
0.00414231
0.00455885
0.00497865
0.00540559
0.00584615
0.0063048
0.00679006
0.00730712
0.00786798
0.00847631
0.00914691
0.0098801
0.010695
0.0115855
0.0125788
0.0136609
0.0148696
0.0161832
0.0176466
0.0192568
0.0210124
0.0230599
0.0251239
0.0279802
0.0308785
0.0354108
0.0394616
0.0442971
0.0414253
0.0257301
0.00164464
0.00126789
0.00299167
0.00513604
0.00711362
0.0090207
0.010918
0.0127981
0.0146422
0.0164358
0.0181851
0.0198979
0.021598
0.0232931
0.0250083
0.0267435
0.02853
0.030356
0.032265
0.0342283
0.0363033
0.038433
0.0407002
0.0430036
0.0454677
0.0479276
0.0505775
0.0531624
0.0559692
0.0586443
0.0615179
0.0642514
0.067025
0.0699146
0.0713911
0.0701002
0.065246
0.0539172
0.043824
0.0238075
0.00112694
0.00204274
0.0033175
0.00464198
0.00589684
0.00703166
0.00806137
0.00900753
0.00988968
0.0107124
0.0114876
0.0122129
0.0129024
0.0135509
0.0141781
0.0147725
0.0153605
0.0159216
0.0164919
0.0170401
0.017614
0.0181684
0.0187657
0.0193433
0.0199814
0.0205967
0.0212889
0.0219515
0.0227029
0.0234125
0.0242038
0.0249221
0.0256663
0.0263097
0.0268947
0.0275942
0.0278223
0.027471
0.0261735
0.0215563
)
;

boundaryField
{
    movingWall
    {
        type            epsilonWallFunction;
        value           nonuniform List<scalar> 
40
(
0.00112694
0.00204274
0.0033175
0.00464198
0.00589684
0.00703166
0.00806137
0.00900753
0.00988968
0.0107124
0.0114876
0.0122129
0.0129024
0.0135509
0.0141781
0.0147725
0.0153605
0.0159216
0.0164919
0.0170401
0.017614
0.0181684
0.0187657
0.0193433
0.0199814
0.0205967
0.0212889
0.0219515
0.0227029
0.0234125
0.0242038
0.0249221
0.0256663
0.0263097
0.0268947
0.0275942
0.0278223
0.027471
0.0261735
0.0215563
)
;
    }
    fixedWalls
    {
        type            epsilonWallFunction;
        value           nonuniform List<scalar> 
120
(
1.56017e-05
7.64001e-05
0.000193833
0.000373023
0.000640946
0.000983966
0.00137299
0.0017796
0.00216757
0.00251353
0.00278625
0.00297241
0.00306857
0.00305275
0.00299421
0.00287008
0.00269317
0.00248552
0.00226264
0.00207141
0.00188958
0.00171194
0.00153963
0.00137614
0.00122491
0.00108974
0.000972266
0.000872389
0.000789182
0.000720939
0.000666124
0.000622971
0.000591373
0.000581242
0.000598841
0.000657212
0.000753589
0.000994694
0.00164464
0.00112694
1.94617e-05
5.69867e-05
7.57649e-05
7.20209e-05
7.84323e-05
0.00011141
0.000201134
0.000402
0.000994125
0.0019801
0.00305156
0.00408284
0.00500812
0.00593974
0.00682961
0.00774354
0.00864444
0.00957763
0.0105106
0.0114758
0.012446
0.0134418
0.0144409
0.0154541
0.0164626
0.0174678
0.0184509
0.0194102
0.0203295
0.021208
0.0220367
0.0228248
0.023588
0.0243912
0.0252965
0.0257921
0.0260121
0.0257301
0.0238075
0.0215563
1.56017e-05
7.1061e-05
0.000149623
0.000219749
0.000286392
0.000350578
0.000406955
0.00044851
0.000482034
0.000506811
0.000544403
0.00062365
0.000764624
0.000982452
0.00122891
0.00151288
0.00183579
0.00215463
0.00247334
0.00280261
0.00314628
0.00351622
0.00392252
0.00438273
0.00492868
0.00555832
0.00609741
0.00663077
0.00703931
0.00727397
0.00735858
0.00710894
0.00643041
0.00530694
0.00377036
0.00214093
0.000930695
0.000348358
0.000102098
1.94617e-05
)
;
    }
    frontAndBack
    {
        type            empty;
    }
}


// ************************************************************************* //
