/*--------------------------------*- C++ -*----------------------------------*\
  =========                 |
  \\      /  F ield         | OpenFOAM: The Open Source CFD Toolbox
   \\    /   O peration     | Website:  https://openfoam.org
    \\  /    A nd           | Version:  12
     \\/     M anipulation  |
\*---------------------------------------------------------------------------*/
FoamFile
{
    format      ascii;
    class       volScalarField;
    location    "2.5";
    object      k;
}
// * * * * * * * * * * * * * * * * * * * * * * * * * * * * * * * * * * * * * //

dimensions      [0 2 -2 0 0 0 0];

internalField   nonuniform List<scalar> 
1600
(
1.22298e-06
5.56841e-06
1.17295e-05
1.72147e-05
2.24138e-05
2.7412e-05
3.17906e-05
3.50083e-05
3.75871e-05
3.947e-05
4.24036e-05
4.86759e-05
5.98561e-05
7.70007e-05
9.61897e-05
0.000118336
0.000143534
0.000168363
0.000193235
0.000218923
0.000245756
0.000274642
0.000306377
0.000342328
0.000384992
0.000434118
0.000476244
0.000517902
0.000549844
0.000568203
0.000574835
0.000555472
0.000502535
0.000414942
0.000295043
0.000167761
7.30248e-05
2.73677e-05
8.02312e-06
1.52898e-06
5.98585e-06
4.14225e-05
8.17058e-05
0.00011463
0.000145008
0.000174306
0.00020222
0.000227454
0.000246364
0.000261373
0.000286398
0.00033687
0.000414168
0.00050019
0.000555023
0.000601233
0.000653301
0.000700724
0.000748037
0.000795886
0.000845356
0.00089705
0.000950352
0.00100336
0.00105345
0.00110068
0.00115283
0.00120094
0.00124364
0.00126475
0.00127149
0.00123422
0.0011408
0.000985776
0.000751132
0.00048748
0.000234316
9.44078e-05
3.15756e-05
4.4613e-06
1.51836e-05
9.64897e-05
0.000167742
0.000225433
0.000281024
0.000338737
0.000401298
0.000470349
0.000545622
0.000625116
0.000701438
0.000736778
0.000747294
0.000751177
0.00076656
0.000796383
0.000825742
0.000854948
0.000885957
0.000918832
0.000953517
0.00098928
0.00102599
0.0010634
0.0011013
0.00114005
0.00117923
0.00121606
0.00124864
0.00126557
0.00127107
0.00124643
0.00117198
0.00104773
0.000852134
0.000587801
0.000287026
0.000113132
4.28521e-05
5.9027e-06
2.92273e-05
0.000167127
0.000267314
0.000348667
0.000429591
0.00051636
0.000610442
0.000706609
0.000791571
0.000832419
0.00084202
0.000823456
0.000814799
0.000814377
0.000832258
0.00085195
0.00087391
0.000898066
0.000924697
0.000951952
0.000979472
0.0010075
0.00103532
0.00106255
0.00108945
0.00111559
0.00114038
0.00116246
0.00118002
0.00118908
0.00119201
0.0011775
0.00113739
0.00105992
0.000934596
0.00072228
0.000389491
0.000131058
4.28844e-05
5.60108e-06
5.02378e-05
0.000251091
0.000383192
0.000488304
0.000592063
0.000698818
0.000802043
0.000874616
0.000900383
0.000895683
0.000857753
0.000840446
0.000834907
0.000837291
0.000855995
0.000874201
0.000898455
0.000924403
0.00095213
0.000980359
0.00100869
0.00103603
0.0010617
0.00108562
0.00110734
0.00112732
0.00114554
0.00116188
0.00117458
0.0011805
0.00118183
0.00116906
0.001137
0.00108812
0.00101068
0.00087666
0.000605259
0.000207323
5.01057e-05
6.10478e-06
7.72164e-05
0.000347483
0.00051147
0.000636745
0.000753119
0.00085924
0.000926949
0.000948642
0.000934186
0.000887757
0.000855016
0.00084257
0.000840219
0.000850128
0.000871535
0.000894986
0.000924315
0.000954875
0.000986908
0.0010187
0.00104958
0.00107884
0.00110643
0.0011326
0.00115754
0.00118158
0.00120525
0.00122816
0.00124859
0.00126156
0.00126652
0.00126182
0.00123079
0.00116729
0.00107314
0.000952394
0.000769305
0.000367055
7.9296e-05
8.69125e-06
0.000107859
0.000450622
0.000643265
0.000781325
0.000896344
0.000969959
0.000993935
0.000980491
0.000924788
0.000872367
0.000849294
0.000842331
0.0008443
0.00086304
0.000888701
0.000917918
0.0009507
0.000983676
0.0010167
0.00104842
0.00107864
0.00110719
0.00113421
0.00116017
0.00118618
0.00121368
0.00124391
0.00127762
0.00131378
0.00134726
0.00136474
0.0013704
0.00136041
0.00131289
0.00121392
0.00105976
0.000858361
0.000576781
0.000141177
1.57084e-05
0.000139904
0.000552604
0.000768294
0.000911494
0.00100515
0.00103891
0.00103401
0.000976105
0.000906115
0.000861843
0.000845306
0.000842049
0.000851537
0.000876186
0.000904857
0.000936124
0.000968299
0.000999411
0.00102927
0.00105774
0.00108496
0.00111116
0.00113678
0.00116233
0.00118931
0.00121899
0.00125294
0.00129282
0.00134015
0.00139439
0.00144574
0.00147043
0.0014765
0.00145589
0.00138074
0.00123228
0.000999878
0.000678682
0.000221168
3.14055e-05
0.000170535
0.000645658
0.000878221
0.00101723
0.00107968
0.0010895
0.00104705
0.000964955
0.000889119
0.000854419
0.000843049
0.000842592
0.00085898
0.000885602
0.000914003
0.000942939
0.000971355
0.000998599
0.00102468
0.00104875
0.00107156
0.00109389
0.0011169
0.00114201
0.00116995
0.00120217
0.00124045
0.00128676
0.0013425
0.00140794
0.00148306
0.0015524
0.00158191
0.00158628
0.00154137
0.00141301
0.00118603
0.000861328
0.000377856
7.76649e-05
0.000197857
0.000723313
0.000968748
0.0010929
0.00113222
0.00111967
0.00104437
0.000948004
0.00087793
0.000848865
0.00084052
0.000842615
0.000862036
0.000887722
0.000914001
0.000940521
0.000964954
0.000986634
0.00100541
0.00102272
0.00104034
0.00105942
0.00108088
0.00110544
0.00113395
0.00116779
0.00120886
0.00125965
0.00132283
0.00140018
0.00149044
0.00159009
0.0016728
0.00170043
0.00169172
0.00159235
0.00136688
0.00101434
0.000542474
0.00015466
0.000219437
0.0007827
0.00103291
0.00114373
0.00116947
0.00113342
0.00103824
0.000933397
0.000869225
0.00084357
0.00083692
0.000841428
0.000861173
0.000885498
0.000908982
0.000929969
0.0009466
0.000960074
0.000972079
0.000984464
0.000998329
0.00101481
0.00103478
0.00105893
0.00108804
0.00112325
0.00116633
0.00121991
0.00128746
0.00137251
0.00147686
0.00159704
0.0017242
0.00180476
0.00182509
0.0017711
0.00156924
0.00120199
0.000664658
0.00023834
0.000234178
0.000822307
0.00107238
0.00117449
0.00119128
0.00113704
0.00102941
0.000921789
0.000861646
0.000838032
0.000832362
0.000838212
0.000857264
0.000878148
0.000895619
0.000908791
0.000918574
0.000925891
0.00093252
0.000940257
0.00095052
0.000964479
0.000983062
0.00100698
0.00103687
0.00107361
0.00111865
0.00117444
0.00124471
0.00133427
0.00144771
0.00158609
0.0017409
0.00188614
0.0019442
0.00193251
0.00175915
0.00138473
0.000823138
0.000318882
0.000241781
0.000842275
0.00108892
0.00118613
0.00119823
0.00113511
0.00102123
0.000912889
0.000854675
0.000831873
0.000826491
0.000831979
0.00084828
0.000863885
0.000875714
0.000883035
0.000886841
0.000888672
0.000890354
0.000893709
0.000900382
0.000911798
0.00092896
0.000952683
0.00098354
0.00102213
0.00106949
0.00112761
0.0012
0.00129206
0.00141047
0.00156063
0.00174069
0.00193193
0.00205603
0.00208265
0.00195218
0.00157098
0.000949946
0.000391158
0.000240527
0.000841295
0.0010858
0.00118325
0.00119543
0.00113036
0.00101431
0.000906521
0.000848261
0.00082495
0.000819161
0.000823007
0.00083551
0.000846915
0.000853167
0.000855092
0.000854226
0.000851142
0.000848561
0.000847899
0.000850885
0.000859573
0.000875138
0.000898559
0.000930455
0.000971218
0.0010214
0.00108236
0.00115707
0.00125088
0.00137173
0.00152848
0.00172525
0.00195056
0.00214762
0.00221887
0.00213773
0.00175914
0.00109501
0.000463926
0.000235895
0.000832804
0.00107343
0.00117286
0.00118691
0.00112324
0.00100925
0.000902622
0.00084255
0.000817434
0.000810586
0.000812217
0.000821035
0.000827815
0.000829869
0.000828147
0.000822975
0.000815867
0.000808978
0.000805117
0.000804664
0.000810371
0.000824079
0.000846981
0.000879873
0.000923025
0.0009765
0.00104089
0.00111837
0.00121384
0.00133579
0.00149576
0.0017036
0.00195534
0.00221686
0.00234516
0.0023163
0.00194584
0.00122866
0.00053344
0.000226081
0.000812959
0.00104775
0.00115132
0.00117043
0.0011146
0.00100664
0.000902604
0.000838286
0.000809963
0.000800955
0.000800446
0.000805516
0.00080842
0.000807818
0.000802909
0.000794546
0.000784305
0.000774186
0.000766732
0.000763821
0.000766513
0.000778164
0.000800298
0.00083404
0.000879666
0.000936766
0.00100506
0.00108574
0.00118299
0.00130528
0.00146602
0.0016804
0.00195398
0.00225905
0.00246115
0.00248259
0.00213343
0.00137155
0.00060483
0.000212105
0.000784365
0.00101305
0.00112201
0.00114894
0.00110442
0.00100597
0.000904566
0.000837225
0.000803426
0.000790955
0.000788256
0.000789752
0.000790172
0.000787235
0.000780181
0.000769748
0.000757415
0.000745059
0.000734757
0.000729626
0.000729845
0.000739479
0.000760684
0.000795091
0.000843145
0.000904028
0.00097651
0.00106062
0.0011597
0.00128175
0.00144119
0.00165713
0.00194393
0.00228515
0.0025654
0.00263828
0.00231756
0.00150914
0.000675207
0.000195731
0.000751448
0.000972318
0.00108688
0.00112337
0.00109255
0.00100655
0.000909509
0.00083869
0.000799234
0.000781956
0.000776108
0.000774671
0.000773016
0.000768476
0.000760217
0.000748762
0.000735402
0.000721845
0.000710047
0.000702848
0.000701524
0.000709483
0.000729819
0.000764753
0.000815081
0.000879744
0.000956783
0.00104504
0.00114613
0.00126711
0.001423
0.00163714
0.0019312
0.00230068
0.00265165
0.00278359
0.00250221
0.00165604
0.000748101
0.000178118
0.000716042
0.000928229
0.00104715
0.00109453
0.00107881
0.00100783
0.000917794
0.000843692
0.000799307
0.000775229
0.000765154
0.000760827
0.000757277
0.000751656
0.000742917
0.000731314
0.000717897
0.00070419
0.000692053
0.000683871
0.000681778
0.000688809
0.000708842
0.000744983
0.000797886
0.000866205
0.000947141
0.00103851
0.00114094
0.00126078
0.00141221
0.00162139
0.00191752
0.00230808
0.00272154
0.00291868
0.00268301
0.00180231
0.000820978
0.000163035
0.000676653
0.000882439
0.00100374
0.00106271
0.00106238
0.0010089
0.000928631
0.000854407
0.000802799
0.000773861
0.000757267
0.0007491
0.000743441
0.000736907
0.000728099
0.000716947
0.000704227
0.000691263
0.00067979
0.000671993
0.000670451
0.000677687
0.000698361
0.000736095
0.000791044
0.000861537
0.000944704
0.00103786
0.00114109
0.00125976
0.00140761
0.00160963
0.00190375
0.0023106
0.0027753
0.00304432
0.00286305
0.0019567
0.000896369
0.000148706
0.000635518
0.000836195
0.000958684
0.00102748
0.0010426
0.00100848
0.000941438
0.000869861
0.000812456
0.00077665
0.000755755
0.000741989
0.0007329
0.000724918
0.000715987
0.000705543
0.000694019
0.000682474
0.000672462
0.000666093
0.0006661
0.000674056
0.000695612
0.000734701
0.000791555
0.000864802
0.000950789
0.00104592
0.00114928
0.00126526
0.00140698
0.00160087
0.00188924
0.00230761
0.00281602
0.00316055
0.00304007
0.00211417
0.000972151
0.000134709
0.000594179
0.000790255
0.000912893
0.000989514
0.00101955
0.00100449
0.000955322
0.000889784
0.000830427
0.000786046
0.000759043
0.00074197
0.000729158
0.000718468
0.000708454
0.000698309
0.000687935
0.000678048
0.00066994
0.00066572
0.000667427
0.000677308
0.00070125
0.000742808
0.000802027
0.000877308
0.000964845
0.00106062
0.00116303
0.00127556
0.00141038
0.00159397
0.00187248
0.00229481
0.00284042
0.00326682
0.00321519
0.00227959
0.00104992
0.000121127
0.000553438
0.000745113
0.000867027
0.000949498
0.000992877
0.000994423
0.00096591
0.000911843
0.000855134
0.000806519
0.000770415
0.000747391
0.000731469
0.000718987
0.000707977
0.000697522
0.000687626
0.000678691
0.000672184
0.000670591
0.000674616
0.000687737
0.000715394
0.000759546
0.000820579
0.000896816
0.000984508
0.00107954
0.00117983
0.00128805
0.00141532
0.00158724
0.00185323
0.00227455
0.00285041
0.00336302
0.00338623
0.00245055
0.00112795
0.000108234
0.000514044
0.000701181
0.000821635
0.000908117
0.000962379
0.000980772
0.000968469
0.000934027
0.000884754
0.000836477
0.000795475
0.000763778
0.000741927
0.000725833
0.00071286
0.000701753
0.000692115
0.000684505
0.000680664
0.000682027
0.000689102
0.00070627
0.00073743
0.000783648
0.000845416
0.000921132
0.00100736
0.00110015
0.00119716
0.00130021
0.00141863
0.00157857
0.00182995
0.00224619
0.00285123
0.00344648
0.00355135
0.0026293
0.00120706
9.6299e-05
0.000476505
0.000658898
0.00077724
0.000866128
0.000928756
0.000962443
0.000966592
0.000950634
0.000915397
0.000872626
0.000831683
0.000796415
0.000767645
0.000745562
0.000728846
0.000716028
0.000706266
0.000699952
0.00069925
0.000702679
0.000712723
0.000733528
0.000766767
0.000813636
0.000874411
0.000947754
0.00103076
0.00111982
0.00121245
0.00130929
0.00141942
0.00156632
0.00180089
0.00220679
0.00283291
0.00351028
0.00370955
0.00281523
0.00128581
8.56311e-05
0.00044147
0.000618476
0.000734344
0.000824324
0.000892852
0.000938614
0.000960051
0.000957432
0.000941012
0.000909773
0.000874234
0.000839802
0.000809258
0.00078381
0.000763381
0.000747701
0.000736648
0.00073023
0.000730537
0.000734903
0.000746373
0.000768656
0.000801951
0.000847297
0.000904916
0.000973882
0.00105192
0.00113588
0.0012225
0.00131302
0.00141498
0.00154861
0.00176489
0.00215637
0.00279807
0.00354783
0.00385687
0.00300905
0.00136428
7.63556e-05
0.000409224
0.000580311
0.000693444
0.000783496
0.000855858
0.000910492
0.000945327
0.000958223
0.000955832
0.000942271
0.000916866
0.000888064
0.000859623
0.000833836
0.000811897
0.000794351
0.000781547
0.000773802
0.00077341
0.000777463
0.000788364
0.000809343
0.000840165
0.000881562
0.000933869
0.000996635
0.00106815
0.00114498
0.00122611
0.0013109
0.00140394
0.00152409
0.00172066
0.00209306
0.00274465
0.00356244
0.00399081
0.00320829
0.00144104
6.84685e-05
0.000379888
0.000544732
0.000654983
0.000744442
0.000819134
0.00087995
0.000925313
0.000954071
0.000965137
0.000963297
0.00095325
0.000934007
0.000911495
0.000888697
0.000867629
0.000849619
0.000835592
0.00082625
0.000823486
0.00082617
0.000834519
0.000851525
0.000877525
0.00091291
0.000958195
0.00101325
0.00107636
0.00114716
0.00122243
0.00130058
0.00138507
0.00149197
0.00166771
0.00201552
0.00266817
0.00355914
0.00410503
0.00341197
0.00151592
6.18992e-05
0.000353528
0.000511961
0.000619345
0.000707941
0.000784017
0.000848971
0.000901947
0.000941893
0.000965667
0.000977726
0.000978171
0.000971563
0.000957835
0.000940634
0.000922694
0.000905828
0.000891428
0.000880581
0.000874561
0.000874879
0.000879282
0.000890445
0.000910053
0.000938082
0.000975212
0.00102132
0.00107727
0.00114091
0.00120968
0.00128147
0.00135795
0.00145209
0.00160645
0.00192329
0.00256158
0.00350664
0.00419155
0.00361589
0.00158768
5.6514e-05
0.000330081
0.000482043
0.000586812
0.000674707
0.000751794
0.000819607
0.000877895
0.00092553
0.000961469
0.000983891
0.000995679
0.00099795
0.000993705
0.000983997
0.000970541
0.000955987
0.000941989
0.000929909
0.000921018
0.000916675
0.00091754
0.000922696
0.000934641
0.000954744
0.000983295
0.00102159
0.00106939
0.00112563
0.00118797
0.00125372
0.00132277
0.00140481
0.00153767
0.00181994
0.00242888
0.00341616
0.0042391
0.00381709
0.00165624
5.2191e-05
0.000309575
0.000454966
0.000557622
0.000645418
0.000723733
0.000793944
0.000856127
0.000909375
0.000952617
0.000984608
0.00100571
0.00101691
0.00101938
0.00101604
0.00100792
0.000996005
0.000982716
0.0009696
0.000958043
0.000949368
0.00094481
0.000945459
0.000950465
0.000962435
0.00098332
0.00101354
0.00105343
0.00110235
0.00115826
0.00121815
0.00128034
0.00135107
0.00146237
0.0017064
0.00227118
0.0032796
0.00425708
0.0040078
0.00172092
4.87884e-05
0.000291815
0.000430631
0.000532047
0.000620909
0.000701304
0.000774257
0.000839847
0.000897382
0.000945979
0.000984756
0.00101232
0.00103009
0.00103868
0.00103883
0.0010346
0.00102512
0.00101218
0.000997952
0.000983913
0.000971517
0.000962116
0.000957104
0.000957747
0.00096311
0.000976257
0.000999126
0.00103154
0.00107327
0.00112276
0.00117694
0.00123281
0.00129313
0.00138354
0.00158828
0.00209743
0.00311074
0.00425586
0.00417677
0.00178243
4.62931e-05
0.000277385
0.000409447
0.000510897
0.000602503
0.000686672
0.000763893
0.000833574
0.000894809
0.000946632
0.00098796
0.0010196
0.00104119
0.00105323
0.00105602
0.00105293
0.00104468
0.00103147
0.00101597
0.000999767
0.000984357
0.000971243
0.000961828
0.000957715
0.000959319
0.00096641
0.00098217
0.00100767
0.00104239
0.00108539
0.001134
0.00118447
0.00123659
0.00130862
0.00147449
0.00192216
0.00291146
0.00421036
0.00429645
0.001842
4.54791e-05
0.000266438
0.000391877
0.000495862
0.000593544
0.000684056
0.000765239
0.000837114
0.000899792
0.000952855
0.000996125
0.00102933
0.00105209
0.001065
0.00106836
0.00106528
0.0010569
0.00104312
0.00102664
0.00100906
0.000991895
0.000976668
0.00096477
0.000957394
0.000956146
0.000959543
0.000969528
0.000989354
0.00101842
0.0010563
0.00110127
0.00115042
0.0012014
0.00126806
0.00141783
0.00181726
0.0027532
0.00416455
0.00435005
0.0019047
4.6843e-05
0.000258108
0.000381556
0.000492147
0.000595675
0.000690148
0.000774851
0.000849461
0.000913477
0.000966796
0.00100945
0.00104145
0.00106317
0.0010753
0.00107822
0.00107503
0.00106672
0.00105332
0.00103731
0.00102017
0.00100337
0.000988186
0.00097585
0.000967825
0.000965694
0.00096814
0.000976206
0.000993068
0.00101896
0.00105409
0.00109808
0.00115
0.00120735
0.00127881
0.00142201
0.00179271
0.00269172
0.00414212
0.00435692
0.00197537
5.14066e-05
0.000258661
0.000383143
0.000498538
0.000608094
0.000707821
0.000795853
0.000871434
0.000934877
0.000986933
0.00102827
0.00105929
0.00108063
0.00109309
0.00109725
0.00109532
0.00108936
0.00107896
0.0010665
0.00105335
0.00104092
0.00103042
0.00102294
0.00102066
0.00102308
0.00103067
0.00104613
0.00107021
0.00110447
0.00115098
0.00121104
0.00128591
0.00137552
0.00149409
0.00166717
0.00203214
0.00281482
0.00415293
0.00427798
0.00201395
5.89476e-05
0.000268649
0.000402533
0.000528024
0.000645352
0.000750484
0.000841906
0.000919475
0.000984311
0.00103783
0.00108108
0.00111504
0.00114075
0.00115924
0.00117149
0.00117879
0.00118339
0.00118601
0.00118815
0.00119127
0.00119685
0.00120623
0.00122056
0.00124174
0.00127059
0.00130796
0.00135607
0.00141653
0.0014914
0.00158423
0.00169677
0.00183806
0.00200117
0.00221313
0.00245301
0.00283414
0.003442
0.00438508
0.00424493
0.00203108
7.782e-05
0.000316438
0.00048229
0.00063451
0.000774113
0.000899687
0.00101168
0.0011106
0.00119778
0.00127482
0.00134306
0.00140412
0.00145964
0.00151097
0.00155962
0.00160678
0.00165434
0.0017038
0.00175686
0.00181475
0.00187924
0.00195131
0.00203262
0.00212369
0.00222663
0.00234107
0.00246973
0.00261167
0.00277046
0.00294598
0.00313955
0.00336281
0.00359702
0.00388665
0.00416711
0.00451995
0.00480823
0.00488052
0.00424052
0.00200886
0.000128679
0.000496852
0.000834262
0.00116733
0.00144653
0.00169289
0.00191896
0.0021275
0.00231961
0.00249664
0.00266128
0.00281611
0.00296438
0.0031079
0.00324924
0.00338931
0.00353059
0.00367312
0.00381994
0.00396996
0.0041266
0.00428713
0.00445606
0.00462818
0.00481006
0.00499311
0.00518775
0.00538001
0.00558636
0.00578558
0.00599902
0.00620138
0.00640947
0.00662223
0.00673209
0.00662642
0.00623473
0.0052681
0.00401297
0.00185858
8.81542e-05
0.000159765
0.000259445
0.000363063
0.00046124
0.000550012
0.000630544
0.00070451
0.000773443
0.000837693
0.000898192
0.000954767
0.00100852
0.00105904
0.00110788
0.00115413
0.00119988
0.00124352
0.00128786
0.0013305
0.00137513
0.00141826
0.00146472
0.00150969
0.00155936
0.00160731
0.00166123
0.00171291
0.00177149
0.00182687
0.00188862
0.00194469
0.00200284
0.00205307
0.0020989
0.00215354
0.00217155
0.00214419
0.00204298
0.00168265
)
;

boundaryField
{
    movingWall
    {
        type            kqRWallFunction;
        value           nonuniform List<scalar> 
40
(
8.81542e-05
0.000159765
0.000259445
0.000363063
0.00046124
0.000550012
0.000630544
0.00070451
0.000773443
0.000837693
0.000898192
0.000954767
0.00100852
0.00105904
0.00110788
0.00115413
0.00119988
0.00124352
0.00128786
0.0013305
0.00137513
0.00141826
0.00146472
0.00150969
0.00155936
0.00160731
0.00166123
0.00171291
0.00177149
0.00182687
0.00188862
0.00194469
0.00200284
0.00205307
0.0020989
0.00215354
0.00217155
0.00214419
0.00204298
0.00168265
)
;
    }
    fixedWalls
    {
        type            kqRWallFunction;
        value           nonuniform List<scalar> 
120
(
1.22298e-06
5.98585e-06
1.51836e-05
2.92273e-05
5.02378e-05
7.72164e-05
0.000107859
0.000139904
0.000170535
0.000197857
0.000219437
0.000234178
0.000241781
0.000240527
0.000235895
0.000226081
0.000212105
0.000195731
0.000178118
0.000163035
0.000148706
0.000134709
0.000121127
0.000108234
9.6299e-05
8.56311e-05
7.63556e-05
6.84685e-05
6.18992e-05
5.6514e-05
5.2191e-05
4.87884e-05
4.62931e-05
4.54791e-05
4.6843e-05
5.14066e-05
5.89476e-05
7.782e-05
0.000128679
8.81542e-05
1.52898e-06
4.4613e-06
5.9027e-06
5.60108e-06
6.10478e-06
8.69125e-06
1.57084e-05
3.14055e-05
7.76649e-05
0.00015466
0.00023834
0.000318882
0.000391158
0.000463926
0.00053344
0.00060483
0.000675207
0.000748101
0.000820978
0.000896369
0.000972151
0.00104992
0.00112795
0.00120706
0.00128581
0.00136428
0.00144104
0.00151592
0.00158768
0.00165624
0.00172092
0.00178243
0.001842
0.0019047
0.00197537
0.00201395
0.00203108
0.00200886
0.00185858
0.00168265
1.22298e-06
5.56841e-06
1.17295e-05
1.72147e-05
2.24138e-05
2.7412e-05
3.17906e-05
3.50083e-05
3.75871e-05
3.947e-05
4.24036e-05
4.86759e-05
5.98561e-05
7.70007e-05
9.61897e-05
0.000118336
0.000143534
0.000168363
0.000193235
0.000218923
0.000245756
0.000274642
0.000306377
0.000342328
0.000384992
0.000434118
0.000476244
0.000517902
0.000549844
0.000568203
0.000574835
0.000555472
0.000502535
0.000414942
0.000295043
0.000167761
7.30248e-05
2.73677e-05
8.02312e-06
1.52898e-06
)
;
    }
    frontAndBack
    {
        type            empty;
    }
}


// ************************************************************************* //
