/*--------------------------------*- C++ -*----------------------------------*\
  =========                 |
  \\      /  F ield         | OpenFOAM: The Open Source CFD Toolbox
   \\    /   O peration     | Website:  https://openfoam.org
    \\  /    A nd           | Version:  12
     \\/     M anipulation  |
\*---------------------------------------------------------------------------*/
FoamFile
{
    format      ascii;
    class       volScalarField;
    location    "2.5";
    object      nut;
}
// * * * * * * * * * * * * * * * * * * * * * * * * * * * * * * * * * * * * * //

dimensions      [0 2 -1 0 0 0 0];

internalField   nonuniform List<scalar> 
1600
(
8.62792e-09
3.92712e-08
8.2757e-08
1.21371e-07
1.57875e-07
1.92903e-07
2.23508e-07
2.45931e-07
2.6378e-07
2.76649e-07
2.97254e-07
3.41924e-07
4.21707e-07
5.4315e-07
6.77612e-07
8.33044e-07
1.01001e-06
1.18404e-06
1.35872e-06
1.53909e-06
1.72763e-06
1.93063e-06
2.15372e-06
2.40649e-06
2.70654e-06
3.05151e-06
3.34777e-06
3.64061e-06
3.86537e-06
3.99465e-06
4.04142e-06
3.90626e-06
3.53457e-06
2.91993e-06
2.07793e-06
1.1831e-06
5.15674e-07
1.93506e-07
5.67428e-08
1.0811e-08
4.22085e-08
2.14454e-06
5.89041e-06
7.91762e-06
9.06398e-06
9.65631e-06
9.70051e-06
9.21332e-06
8.19981e-06
7.04931e-06
6.37747e-06
6.29718e-06
6.71179e-06
8.10432e-06
9.36433e-06
1.07459e-05
1.25651e-05
1.4394e-05
1.62729e-05
1.8143e-05
1.99626e-05
2.16926e-05
2.34131e-05
2.49437e-05
2.60841e-05
2.68272e-05
2.76502e-05
2.81838e-05
2.84695e-05
2.81719e-05
2.79163e-05
2.62685e-05
2.38746e-05
2.05701e-05
1.60915e-05
1.12218e-05
5.98072e-06
2.46332e-06
8.20363e-07
3.14334e-08
1.07045e-07
5.8895e-06
1.41739e-05
1.79217e-05
1.9218e-05
1.93463e-05
1.88993e-05
1.80288e-05
1.68439e-05
1.57624e-05
1.58419e-05
1.62699e-05
1.66629e-05
1.76417e-05
1.88183e-05
2.08985e-05
2.35106e-05
2.60698e-05
2.85834e-05
3.10011e-05
3.34086e-05
3.53761e-05
3.68879e-05
3.79049e-05
3.86927e-05
3.91627e-05
3.93638e-05
3.91443e-05
3.8459e-05
3.68246e-05
3.47919e-05
3.21787e-05
2.80923e-05
2.37189e-05
1.80403e-05
1.22176e-05
7.02565e-06
3.58161e-06
1.53176e-06
4.13882e-08
2.06103e-07
1.0145e-05
2.07462e-05
2.46763e-05
2.54598e-05
2.49955e-05
2.405e-05
2.2961e-05
2.20202e-05
2.16705e-05
2.1595e-05
2.11263e-05
2.19857e-05
2.42505e-05
2.75527e-05
3.09873e-05
3.40606e-05
3.67744e-05
3.93105e-05
4.1668e-05
4.33004e-05
4.45645e-05
4.53859e-05
4.58358e-05
4.59745e-05
4.57897e-05
4.52528e-05
4.42935e-05
4.2849e-05
4.07661e-05
3.83403e-05
3.51785e-05
3.09389e-05
2.61028e-05
2.04362e-05
1.35799e-05
7.01508e-06
3.24232e-06
1.39388e-06
3.92038e-08
3.5439e-07
1.42258e-05
2.65187e-05
3.00887e-05
3.0282e-05
2.94145e-05
2.828e-05
2.68118e-05
2.6076e-05
2.54486e-05
2.42765e-05
2.61604e-05
2.95241e-05
3.25246e-05
3.6562e-05
3.97551e-05
4.27887e-05
4.55335e-05
4.79518e-05
4.96763e-05
5.09953e-05
5.18655e-05
5.23208e-05
5.23804e-05
5.20062e-05
5.12499e-05
5.00972e-05
4.85607e-05
4.65853e-05
4.40829e-05
4.13468e-05
3.80055e-05
3.39013e-05
2.92635e-05
2.41003e-05
1.79508e-05
9.86182e-06
3.56606e-06
1.16031e-06
4.27649e-08
5.45358e-07
1.82509e-05
3.1765e-05
3.48718e-05
3.45199e-05
3.3204e-05
3.10784e-05
2.99755e-05
2.87414e-05
2.74554e-05
2.94894e-05
3.30346e-05
3.67013e-05
4.03495e-05
4.40796e-05
4.72055e-05
5.04776e-05
5.30641e-05
5.51849e-05
5.68271e-05
5.80853e-05
5.89186e-05
5.93679e-05
5.94473e-05
5.91542e-05
5.84889e-05
5.7452e-05
5.59987e-05
5.40194e-05
5.12971e-05
4.8266e-05
4.49651e-05
4.04676e-05
3.45482e-05
2.76198e-05
2.10177e-05
1.37015e-05
4.90356e-06
1.27593e-06
6.10215e-08
7.62583e-07
2.2083e-05
3.65343e-05
3.9216e-05
3.83349e-05
3.5641e-05
3.39921e-05
3.25884e-05
3.07366e-05
3.19229e-05
3.55567e-05
3.9656e-05
4.3159e-05
4.69361e-05
5.05388e-05
5.40366e-05
5.71124e-05
5.95551e-05
6.16473e-05
6.33073e-05
6.4563e-05
6.53777e-05
6.57483e-05
6.56673e-05
6.51932e-05
6.44002e-05
6.33388e-05
6.20486e-05
6.04756e-05
5.83396e-05
5.48442e-05
5.10101e-05
4.74121e-05
4.23593e-05
3.51004e-05
2.57327e-05
1.65942e-05
8.40018e-06
1.82646e-06
1.10413e-07
9.89882e-07
2.55412e-05
4.07818e-05
4.31478e-05
4.0982e-05
3.8425e-05
3.69626e-05
3.42752e-05
3.41908e-05
3.71e-05
4.14655e-05
4.53307e-05
4.87218e-05
5.26478e-05
5.64221e-05
5.99419e-05
6.28127e-05
6.52975e-05
6.74249e-05
6.91813e-05
7.05405e-05
7.14499e-05
7.18696e-05
7.17557e-05
7.11723e-05
7.01472e-05
6.8743e-05
6.70639e-05
6.52684e-05
6.34455e-05
6.10841e-05
5.674e-05
5.2052e-05
4.79204e-05
4.19852e-05
3.30451e-05
2.16443e-05
1.05072e-05
2.28663e-06
2.20815e-07
1.20752e-06
2.84693e-05
4.4478e-05
4.63422e-05
4.34278e-05
4.16491e-05
3.88832e-05
3.7092e-05
3.80435e-05
4.21966e-05
4.66788e-05
4.99663e-05
5.3628e-05
5.76514e-05
6.1501e-05
6.48422e-05
6.77439e-05
7.04767e-05
7.29373e-05
7.49332e-05
7.64338e-05
7.74005e-05
7.78432e-05
7.78052e-05
7.7223e-05
7.61141e-05
7.45335e-05
7.25682e-05
7.03087e-05
6.78725e-05
6.55716e-05
6.26924e-05
5.73541e-05
5.26659e-05
4.78345e-05
3.97183e-05
2.80383e-05
1.54263e-05
3.87631e-06
5.46074e-07
1.40172e-06
3.07303e-05
4.77069e-05
4.87565e-05
4.62562e-05
4.423e-05
4.08721e-05
3.98576e-05
4.21213e-05
4.67713e-05
5.08592e-05
5.3906e-05
5.78107e-05
6.18799e-05
6.57456e-05
6.94233e-05
7.26992e-05
7.56928e-05
7.81534e-05
8.01485e-05
8.17377e-05
8.28865e-05
8.35529e-05
8.36587e-05
8.31454e-05
8.19996e-05
8.02565e-05
7.80128e-05
7.54174e-05
7.26265e-05
6.97194e-05
6.69449e-05
6.31978e-05
5.67243e-05
5.26484e-05
4.57473e-05
3.39185e-05
1.97015e-05
6.34097e-06
1.08721e-06
1.55541e-06
3.23796e-05
5.00922e-05
5.09127e-05
4.9193e-05
4.61729e-05
4.32231e-05
4.26755e-05
4.58618e-05
5.05188e-05
5.42662e-05
5.74167e-05
6.15446e-05
6.58509e-05
6.99512e-05
7.37281e-05
7.69714e-05
7.98664e-05
8.22979e-05
8.45229e-05
8.64156e-05
8.78376e-05
8.87499e-05
8.90822e-05
8.87524e-05
8.77009e-05
8.59132e-05
8.34527e-05
8.04782e-05
7.72188e-05
7.3887e-05
7.05396e-05
6.73249e-05
6.18022e-05
5.62992e-05
5.10551e-05
4.0072e-05
2.50395e-05
8.55599e-06
1.67539e-06
1.66044e-06
3.34036e-05
5.17362e-05
5.30389e-05
5.15172e-05
4.81878e-05
4.54598e-05
4.53694e-05
4.90411e-05
5.35554e-05
5.71888e-05
6.05467e-05
6.49186e-05
6.93299e-05
7.33429e-05
7.69256e-05
8.02165e-05
8.32128e-05
8.58853e-05
8.80806e-05
9.01783e-05
9.19033e-05
9.30723e-05
9.37015e-05
9.36885e-05
9.29203e-05
9.13053e-05
8.88258e-05
8.55945e-05
8.18751e-05
7.80214e-05
7.43098e-05
7.07135e-05
6.67198e-05
5.95922e-05
5.49784e-05
4.52205e-05
2.98657e-05
1.15388e-05
2.2415e-06
1.71455e-06
3.38052e-05
5.28468e-05
5.46031e-05
5.33623e-05
5.01334e-05
4.76103e-05
4.77986e-05
5.16129e-05
5.60097e-05
5.96337e-05
6.31262e-05
6.75495e-05
7.18253e-05
7.57948e-05
7.94085e-05
8.27337e-05
8.5785e-05
8.85305e-05
9.07651e-05
9.27255e-05
9.47142e-05
9.61224e-05
9.70853e-05
9.75101e-05
9.72362e-05
9.60747e-05
9.38785e-05
9.06391e-05
8.65691e-05
8.21023e-05
7.77409e-05
7.37685e-05
6.9972e-05
6.34296e-05
5.80637e-05
4.98853e-05
3.45605e-05
1.41713e-05
2.74962e-06
1.70561e-06
3.35541e-05
5.30465e-05
5.57526e-05
5.50464e-05
5.2024e-05
4.96138e-05
4.99073e-05
5.36051e-05
5.78932e-05
6.15825e-05
6.51195e-05
6.94506e-05
7.37119e-05
7.75286e-05
8.10638e-05
8.44256e-05
8.73972e-05
9.01131e-05
9.23216e-05
9.40096e-05
9.59889e-05
9.75841e-05
9.88759e-05
9.98263e-05
0.000100244
9.98395e-05
9.83009e-05
9.54335e-05
9.13089e-05
8.63533e-05
8.12528e-05
7.66009e-05
7.24707e-05
6.71522e-05
6.05521e-05
5.37017e-05
3.8702e-05
1.69481e-05
3.26116e-06
1.67262e-06
3.31391e-05
5.32401e-05
5.70942e-05
5.66854e-05
5.37746e-05
5.14569e-05
5.16955e-05
5.50847e-05
5.92489e-05
6.30258e-05
6.65604e-05
7.07716e-05
7.48217e-05
7.85336e-05
8.20677e-05
8.52625e-05
8.80521e-05
9.04517e-05
9.26197e-05
9.4027e-05
9.56746e-05
9.73433e-05
9.89163e-05
0.000100432
0.000101693
0.000102313
0.0001018
9.97241e-05
9.5929e-05
9.07239e-05
8.49134e-05
7.94368e-05
7.47311e-05
7.04008e-05
6.28318e-05
5.6875e-05
4.24865e-05
1.93871e-05
3.74988e-06
1.60278e-06
3.22811e-05
5.30355e-05
5.79347e-05
5.7945e-05
5.54081e-05
5.31866e-05
5.33192e-05
5.6101e-05
6.00867e-05
6.39129e-05
6.74781e-05
7.14751e-05
7.52805e-05
7.89491e-05
8.23031e-05
8.52601e-05
8.77636e-05
8.98115e-05
9.15608e-05
9.27969e-05
9.39838e-05
9.55635e-05
9.73351e-05
9.94005e-05
0.000101581
0.000103416
0.000104231
0.000103331
0.000100279
9.515e-05
8.87595e-05
8.23916e-05
7.70536e-05
7.25988e-05
6.50782e-05
5.92617e-05
4.54739e-05
2.19326e-05
4.25177e-06
1.50342e-06
3.11934e-05
5.23589e-05
5.84272e-05
5.8995e-05
5.6912e-05
5.4801e-05
5.46516e-05
5.70453e-05
6.05887e-05
6.42717e-05
6.78661e-05
7.15959e-05
7.52483e-05
7.87159e-05
8.18319e-05
8.44991e-05
8.66585e-05
8.83104e-05
8.95379e-05
9.05172e-05
9.12899e-05
9.267e-05
9.45486e-05
9.70965e-05
0.000100186
0.000103315
0.000105645
0.000106196
0.000104249
9.95402e-05
9.27474e-05
8.5375e-05
7.90169e-05
7.41061e-05
6.73905e-05
6.11554e-05
4.7997e-05
2.41863e-05
4.74657e-06
1.38722e-06
3.00042e-05
5.12905e-05
5.86397e-05
5.9846e-05
5.82874e-05
5.63007e-05
5.57901e-05
5.74734e-05
6.07067e-05
6.42975e-05
6.77576e-05
7.12475e-05
7.46882e-05
7.79105e-05
8.0756e-05
8.31134e-05
8.49188e-05
8.61752e-05
8.69771e-05
8.75526e-05
8.80385e-05
8.9095e-05
9.09293e-05
9.37827e-05
9.76334e-05
0.000102033
0.000106111
0.000108611
0.000108051
0.000103982
9.68914e-05
8.85449e-05
8.09862e-05
7.52488e-05
6.92722e-05
6.25464e-05
5.01918e-05
2.63883e-05
5.25902e-06
1.26196e-06
2.86526e-05
4.99505e-05
5.85511e-05
6.05052e-05
5.95433e-05
5.77509e-05
5.69202e-05
5.79118e-05
6.06367e-05
6.37869e-05
6.7244e-05
7.05439e-05
7.37168e-05
7.6657e-05
7.92144e-05
8.12677e-05
8.27503e-05
8.36782e-05
8.41682e-05
8.44436e-05
8.47231e-05
8.55064e-05
8.73412e-05
9.05699e-05
9.51625e-05
0.000100682
0.000106181
0.000110316
0.000111471
0.000108327
0.000101193
9.19056e-05
8.30617e-05
7.63785e-05
7.08379e-05
6.3572e-05
5.20532e-05
2.83514e-05
5.77137e-06
1.15488e-06
2.68962e-05
4.83578e-05
5.81222e-05
6.09889e-05
6.06654e-05
5.91479e-05
5.81531e-05
5.86648e-05
6.05916e-05
6.33725e-05
6.61787e-05
6.93357e-05
7.23556e-05
7.5049e-05
7.73222e-05
7.90813e-05
8.02827e-05
8.09939e-05
8.13504e-05
8.15659e-05
8.18988e-05
8.27682e-05
8.48785e-05
8.85241e-05
9.36654e-05
9.98373e-05
0.000106165
0.000111306
0.000113906
0.000112122
0.000105483
9.53605e-05
8.51753e-05
7.74526e-05
7.19078e-05
6.44343e-05
5.36321e-05
3.02494e-05
6.30134e-06
1.05325e-06
2.49281e-05
4.64943e-05
5.74247e-05
6.12632e-05
6.16533e-05
6.05732e-05
5.94772e-05
5.94479e-05
6.06544e-05
6.29832e-05
6.55603e-05
6.79701e-05
7.05051e-05
7.29261e-05
7.49849e-05
7.65942e-05
7.77875e-05
7.85389e-05
7.8939e-05
7.91671e-05
7.95182e-05
8.04177e-05
8.26083e-05
8.63836e-05
9.18761e-05
9.88048e-05
0.000106262
0.000112778
0.000116445
0.000115815
0.000109541
9.88319e-05
8.7298e-05
7.8468e-05
7.26367e-05
6.51487e-05
5.49417e-05
3.19922e-05
6.83406e-06
9.54e-07
2.28914e-05
4.44128e-05
5.64614e-05
6.13121e-05
6.25014e-05
6.20546e-05
6.10523e-05
6.05402e-05
6.10549e-05
6.2558e-05
6.49072e-05
6.72566e-05
6.93552e-05
7.12972e-05
7.30577e-05
7.45518e-05
7.56768e-05
7.64161e-05
7.68402e-05
7.71584e-05
7.75048e-05
7.86035e-05
8.10166e-05
8.50748e-05
9.09607e-05
9.8431e-05
0.000106655
0.000114196
0.000119124
0.000119378
0.000113521
0.000102257
8.93324e-05
7.91565e-05
7.28524e-05
6.57506e-05
5.60566e-05
3.36578e-05
7.38071e-06
8.57647e-07
2.08976e-05
4.21725e-05
5.51868e-05
6.1164e-05
6.31845e-05
6.32608e-05
6.26027e-05
6.18105e-05
6.18635e-05
6.2671e-05
6.4167e-05
6.63173e-05
6.83581e-05
7.02004e-05
7.17964e-05
7.30857e-05
7.40172e-05
7.45954e-05
7.49989e-05
7.54547e-05
7.60065e-05
7.7442e-05
8.02525e-05
8.46456e-05
9.08666e-05
9.87189e-05
0.000107453
0.000115694
0.000121499
0.000122631
0.000117245
0.000105503
9.12782e-05
7.97057e-05
7.2763e-05
6.62932e-05
5.70056e-05
3.5184e-05
7.9291e-06
7.6614e-07
1.90303e-05
3.98352e-05
5.35965e-05
6.08245e-05
6.37038e-05
6.44111e-05
6.39798e-05
6.35332e-05
6.32724e-05
6.3483e-05
6.42323e-05
6.54045e-05
6.71255e-05
6.88125e-05
7.02497e-05
7.13752e-05
7.2195e-05
7.28121e-05
7.34758e-05
7.41384e-05
7.51e-05
7.70722e-05
8.02794e-05
8.5035e-05
9.15383e-05
9.96317e-05
0.000108652
0.000117315
0.000123708
0.000125534
0.000120471
0.000108426
9.30339e-05
8.01183e-05
7.25845e-05
6.66957e-05
5.78177e-05
3.66136e-05
8.48512e-06
6.81367e-07
1.73225e-05
3.75026e-05
5.1763e-05
6.02718e-05
6.40615e-05
6.55222e-05
6.57615e-05
6.56653e-05
6.5118e-05
6.49407e-05
6.51958e-05
6.5814e-05
6.66517e-05
6.7689e-05
6.87952e-05
6.98236e-05
7.06988e-05
7.15221e-05
7.26822e-05
7.35341e-05
7.4982e-05
7.75524e-05
8.11505e-05
8.62246e-05
9.29149e-05
0.000101094
0.00011019
0.000119006
0.000125791
0.00012796
0.000123309
0.00011099
9.4523e-05
8.02831e-05
7.18941e-05
6.67243e-05
5.85143e-05
3.79555e-05
9.03851e-06
6.05597e-07
1.58982e-05
3.50863e-05
4.97536e-05
5.94861e-05
6.4241e-05
6.65087e-05
6.74458e-05
6.73388e-05
6.72711e-05
6.70707e-05
6.69976e-05
6.71964e-05
6.76271e-05
6.82463e-05
6.89639e-05
6.97406e-05
7.05893e-05
7.15342e-05
7.29699e-05
7.41177e-05
7.58984e-05
7.8926e-05
8.28853e-05
8.81711e-05
9.49043e-05
0.000102991
0.000111964
0.000120793
0.000127427
0.000129745
0.000125508
0.000113061
9.56992e-05
8.02603e-05
7.11906e-05
6.62687e-05
5.89934e-05
3.92854e-05
9.58992e-06
5.39683e-07
1.46774e-05
3.28579e-05
4.77446e-05
5.84361e-05
6.42545e-05
6.73677e-05
6.89255e-05
6.93017e-05
6.95836e-05
6.96093e-05
6.95506e-05
6.95453e-05
6.97004e-05
7.0026e-05
7.05052e-05
7.11248e-05
7.19025e-05
7.28794e-05
7.44728e-05
7.6031e-05
7.79697e-05
8.12412e-05
8.54678e-05
9.07835e-05
9.73696e-05
0.000105271
0.000113987
0.000122128
0.000128474
0.000130969
0.000126939
0.000114501
9.64528e-05
7.98976e-05
7.03271e-05
6.57508e-05
5.93118e-05
4.05603e-05
1.01292e-05
4.83632e-07
1.36689e-05
3.08909e-05
4.58082e-05
5.71929e-05
6.41546e-05
6.81491e-05
7.04419e-05
7.17029e-05
7.20755e-05
7.24929e-05
7.2659e-05
7.272e-05
7.28036e-05
7.29996e-05
7.33471e-05
7.38737e-05
7.46186e-05
7.56363e-05
7.72303e-05
7.91523e-05
8.13489e-05
8.44457e-05
8.86894e-05
9.3885e-05
0.000100277
0.000107687
0.000115423
0.000123041
0.000128997
0.000131248
0.000127352
0.000115127
9.66987e-05
7.91626e-05
6.9149e-05
6.5248e-05
5.9384e-05
4.18084e-05
1.06553e-05
4.36954e-07
1.28778e-05
2.92423e-05
4.40369e-05
5.59229e-05
6.39653e-05
6.88957e-05
7.19923e-05
7.39807e-05
7.48513e-05
7.5554e-05
7.61813e-05
7.65098e-05
7.67688e-05
7.70058e-05
7.73552e-05
7.78765e-05
7.86286e-05
7.96771e-05
8.11649e-05
8.33105e-05
8.5632e-05
8.85702e-05
9.2376e-05
9.73065e-05
0.000103133
0.000109575
0.000116631
0.000123381
0.000128528
0.000130292
0.000126445
0.000114674
9.63024e-05
7.7975e-05
6.74218e-05
6.37494e-05
5.9133e-05
4.30055e-05
1.11594e-05
3.98709e-07
1.23039e-05
2.79518e-05
4.25275e-05
5.47882e-05
6.37747e-05
6.96809e-05
7.36484e-05
7.63436e-05
7.81842e-05
7.91085e-05
7.9925e-05
8.07538e-05
8.13161e-05
8.18556e-05
8.23246e-05
8.29131e-05
8.36964e-05
8.47441e-05
8.61449e-05
8.80472e-05
9.04805e-05
9.31698e-05
9.64516e-05
0.000100441
0.000105432
0.000111167
0.000117085
0.000122624
0.000126671
0.000127698
0.000123796
0.000112731
9.49553e-05
7.63522e-05
6.52884e-05
6.22487e-05
5.84802e-05
4.41434e-05
1.1641e-05
3.68026e-07
1.19523e-05
2.70476e-05
4.13792e-05
5.39579e-05
6.37296e-05
7.06299e-05
7.55401e-05
7.90545e-05
8.15995e-05
8.33422e-05
8.45054e-05
8.54407e-05
8.63101e-05
8.71412e-05
8.80261e-05
8.87402e-05
8.9535e-05
9.05023e-05
9.17194e-05
9.32728e-05
9.52466e-05
9.77008e-05
0.000100294
0.000103188
0.000107057
0.000111635
0.000116165
0.000120133
0.000122669
0.000122578
0.000118435
0.000108509
9.21233e-05
7.39192e-05
6.25053e-05
6.01891e-05
5.78352e-05
4.51674e-05
1.20954e-05
3.43882e-07
1.18172e-05
2.65704e-05
4.07039e-05
5.36382e-05
6.40477e-05
7.19508e-05
7.78808e-05
8.2324e-05
8.56877e-05
8.82393e-05
8.99889e-05
9.13238e-05
9.23905e-05
9.29464e-05
9.37578e-05
9.46281e-05
9.53758e-05
9.61564e-05
9.70294e-05
9.80787e-05
9.93828e-05
0.000101028
0.000103057
0.000104772
0.000107051
0.000110039
0.000112804
0.000114963
0.000115925
0.000114746
0.000110287
0.000101163
8.64644e-05
7.0274e-05
5.90956e-05
5.77101e-05
5.73011e-05
4.59825e-05
1.25274e-05
3.26147e-07
1.19502e-05
2.65922e-05
4.07375e-05
5.39754e-05
6.50884e-05
7.4081e-05
8.11401e-05
8.65658e-05
9.06618e-05
9.36344e-05
9.59186e-05
9.76031e-05
9.8869e-05
9.96599e-05
0.00010009
0.000100597
0.000100881
0.000101099
0.0001013
0.000101534
0.000101847
0.000102317
0.000103003
0.00010355
0.00010426
0.000105262
0.000105972
0.000106197
0.000105476
0.000103156
9.84646e-05
9.06115e-05
7.82281e-05
6.37791e-05
5.44978e-05
5.46506e-05
5.59436e-05
4.62038e-05
1.29459e-05
3.20265e-07
1.24171e-05
2.71807e-05
4.17622e-05
5.55504e-05
6.74568e-05
7.68925e-05
8.43192e-05
9.01426e-05
9.46349e-05
9.80673e-05
0.000100618
0.000102346
0.00010342
0.00010396
0.000103975
0.0001038
0.000103277
0.000102662
0.000101955
0.000101153
0.00010027
9.93867e-05
9.83701e-05
9.75462e-05
9.65048e-05
9.50999e-05
9.38636e-05
9.24214e-05
9.04094e-05
8.74595e-05
8.31029e-05
7.69124e-05
6.82818e-05
5.8349e-05
5.07455e-05
5.13016e-05
5.47099e-05
4.58821e-05
1.33863e-05
3.29777e-07
1.31388e-05
2.89346e-05
4.433e-05
5.75395e-05
6.86741e-05
7.80916e-05
8.56381e-05
9.14735e-05
9.58464e-05
9.89954e-05
0.000101098
0.000102322
0.000102813
0.000102632
0.000102119
0.000101081
9.96331e-05
9.78743e-05
9.58421e-05
9.35971e-05
9.10685e-05
8.85066e-05
8.59936e-05
8.34543e-05
8.07439e-05
7.7893e-05
7.52736e-05
7.27411e-05
7.01553e-05
6.73379e-05
6.38929e-05
5.97183e-05
5.45534e-05
4.91301e-05
4.61946e-05
4.94909e-05
5.36384e-05
4.53922e-05
1.38829e-05
3.61888e-07
1.46633e-05
3.13985e-05
4.53539e-05
5.77521e-05
6.79694e-05
7.60261e-05
8.21372e-05
8.65666e-05
8.96074e-05
9.14919e-05
9.23859e-05
9.24292e-05
9.17382e-05
9.03428e-05
8.85083e-05
8.63037e-05
8.35824e-05
8.05713e-05
7.73379e-05
7.39698e-05
7.05129e-05
6.70968e-05
6.39282e-05
6.08285e-05
5.78523e-05
5.52191e-05
5.2901e-05
5.0928e-05
4.92635e-05
4.79059e-05
4.6601e-05
4.54267e-05
4.38799e-05
4.26969e-05
4.29916e-05
4.69551e-05
5.12334e-05
4.35365e-05
1.41532e-05
4.14993e-07
1.56634e-05
3.17282e-05
4.29523e-05
5.14364e-05
5.77679e-05
6.22205e-05
6.51434e-05
6.68544e-05
6.76161e-05
6.76146e-05
6.69834e-05
6.58242e-05
6.42273e-05
6.22522e-05
5.9998e-05
5.76111e-05
5.50948e-05
5.25336e-05
5.00118e-05
4.75907e-05
4.5339e-05
4.32884e-05
4.15394e-05
4.00588e-05
3.88691e-05
3.80075e-05
3.74929e-05
3.73359e-05
3.75328e-05
3.81546e-05
3.90767e-05
4.05302e-05
4.19501e-05
4.3516e-05
4.53058e-05
4.85674e-05
4.98696e-05
4.21083e-05
1.42733e-05
5.47943e-07
1.69378e-05
2.63388e-05
3.06156e-05
3.38185e-05
3.61438e-05
3.76939e-05
3.86312e-05
3.91174e-05
3.92778e-05
3.91915e-05
3.89221e-05
3.85143e-05
3.80114e-05
3.74463e-05
3.68538e-05
3.62757e-05
3.57546e-05
3.53062e-05
3.49679e-05
3.47483e-05
3.46843e-05
3.47676e-05
3.50358e-05
3.54731e-05
3.6107e-05
3.69181e-05
3.79328e-05
3.91458e-05
4.05618e-05
4.22184e-05
4.41355e-05
4.63489e-05
4.85893e-05
5.06123e-05
5.19246e-05
5.27277e-05
4.83948e-05
3.90674e-05
1.41156e-05
9.06124e-07
1.75233e-05
2.0938e-05
2.3878e-05
2.64731e-05
2.85931e-05
3.03551e-05
3.183e-05
3.30724e-05
3.41321e-05
3.50517e-05
3.58702e-05
3.66182e-05
3.73206e-05
3.79945e-05
3.86587e-05
3.9322e-05
4.00007e-05
4.07028e-05
4.1441e-05
4.22164e-05
4.30399e-05
4.39084e-05
4.48289e-05
4.57973e-05
4.68165e-05
4.78898e-05
4.90009e-05
5.01823e-05
5.13702e-05
5.26503e-05
5.38686e-05
5.51633e-05
5.64525e-05
5.71345e-05
5.63744e-05
5.36196e-05
4.63258e-05
3.30722e-05
1.30585e-05
6.20622e-07
1.12459e-06
1.82609e-06
2.55567e-06
3.24696e-06
3.87194e-06
4.43879e-06
4.95919e-06
5.44399e-06
5.89555e-06
6.32051e-06
6.71767e-06
7.09475e-06
7.44898e-06
7.79122e-06
8.11523e-06
8.43551e-06
8.741e-06
9.05133e-06
9.34976e-06
9.66208e-06
9.96405e-06
1.02893e-05
1.06045e-05
1.09524e-05
1.12887e-05
1.16667e-05
1.20295e-05
1.24405e-05
1.28295e-05
1.32631e-05
1.36571e-05
1.4066e-05
1.44189e-05
1.47421e-05
1.51262e-05
1.52543e-05
1.50624e-05
1.43519e-05
1.1821e-05
)
;

boundaryField
{
    movingWall
    {
        type            nutkWallFunction;
        Cmu             0.09;
        kappa           0.41;
        E               9.8;
        value           uniform 0;
    }
    fixedWalls
    {
        type            nutkWallFunction;
        Cmu             0.09;
        kappa           0.41;
        E               9.8;
        value           uniform 0;
    }
    frontAndBack
    {
        type            empty;
    }
}


// ************************************************************************* //
