/*--------------------------------*- C++ -*----------------------------------*\
  =========                 |
  \\      /  F ield         | OpenFOAM: The Open Source CFD Toolbox
   \\    /   O peration     | Website:  https://openfoam.org
    \\  /    A nd           | Version:  12
     \\/     M anipulation  |
\*---------------------------------------------------------------------------*/
FoamFile
{
    format      ascii;
    class       volScalarField;
    location    "2.5";
    object      p;
}
// * * * * * * * * * * * * * * * * * * * * * * * * * * * * * * * * * * * * * //

dimensions      [0 2 -2 0 0 0 0];

internalField   nonuniform List<scalar> 
1600
(
2.44958e-08
-2.04562e-05
-7.42153e-05
-0.000157431
-0.000262337
-0.000383817
-0.000517663
-0.000659634
-0.000801245
-0.000937185
-0.001072
-0.00122823
-0.00143268
-0.00167142
-0.00179722
-0.00186337
-0.0020393
-0.00234019
-0.00270248
-0.0030426
-0.00328582
-0.00337389
-0.00326631
-0.00292767
-0.00234236
-0.0015299
-0.000506506
0.000704553
0.00204142
0.00339837
0.00461676
0.00552215
0.00597595
0.0059331
0.00539873
0.00479791
0.0043579
0.00420501
0.00421561
0.0042255
8.93434e-06
-1.55007e-05
-6.89378e-05
-0.000150735
-0.000254215
-0.000374017
-0.000505861
-0.000643109
-0.000777497
-0.00089753
-0.000997521
-0.00109405
-0.00125098
-0.0014982
-0.00177294
-0.00202538
-0.00231869
-0.00267821
-0.00305914
-0.00340073
-0.00364067
-0.00372969
-0.00363059
-0.0033197
-0.00279337
-0.00204126
-0.00106612
9.23463e-05
0.00137852
0.00269616
0.00391232
0.00486396
0.00540363
0.00545226
0.00505304
0.00448651
0.00412758
0.00406357
0.00412462
0.00416145
4.87897e-05
1.52894e-05
-4.38924e-05
-0.000125634
-0.000224327
-0.000336277
-0.000455263
-0.000572722
-0.000682776
-0.00079535
-0.000937822
-0.0011259
-0.00137626
-0.0017004
-0.00208203
-0.00249638
-0.00292945
-0.00336661
-0.00377347
-0.00410852
-0.00433286
-0.00441172
-0.00431764
-0.00403113
-0.00354742
-0.00285421
-0.00195862
-0.00088841
0.00031313
0.00157383
0.00279235
0.0038309
0.00453748
0.00480268
0.00464423
0.00426529
0.00399384
0.00394473
0.00402165
0.00405249
0.00012963
8.12259e-05
1.31728e-05
-6.70426e-05
-0.000157063
-0.000257679
-0.000366257
-0.000481363
-0.000609793
-0.000773903
-0.00100581
-0.0013317
-0.00175095
-0.00223466
-0.00275311
-0.00328776
-0.00381209
-0.00429637
-0.00471191
-0.00503757
-0.00524828
-0.00531882
-0.00522897
-0.00496494
-0.00451548
-0.00388271
-0.00307499
-0.00210968
-0.00101365
0.000167286
0.00136174
0.0024643
0.00334733
0.00390143
0.00409709
0.00403592
0.00394628
0.00390263
0.0039455
0.00394535
0.000252067
0.000183224
0.000104379
2.46636e-05
-5.90568e-05
-0.000156006
-0.00027314
-0.000421749
-0.00062228
-0.000903049
-0.00129044
-0.00179029
-0.00237872
-0.00301041
-0.00364653
-0.00426286
-0.00483339
-0.00533777
-0.00576311
-0.00609394
-0.00629905
-0.006361
-0.00626979
-0.00602235
-0.00561072
-0.00504146
-0.00431979
-0.00345666
-0.00247111
-0.00139394
-0.000269295
0.000842158
0.00186126
0.00269917
0.00329775
0.00365456
0.00384448
0.00393271
0.00390083
0.0038558
0.000399018
0.000310711
0.000214821
0.000131661
4.63721e-05
-6.41084e-05
-0.000219391
-0.000443648
-0.000767432
-0.00121309
-0.00178247
-0.00245194
-0.00318088
-0.00392518
-0.00464656
-0.00531845
-0.00592352
-0.00644729
-0.00687324
-0.00718176
-0.00736121
-0.00740732
-0.00731615
-0.00708666
-0.0067169
-0.00621185
-0.00557655
-0.00481778
-0.00394515
-0.00297334
-0.00192465
-0.000834343
0.000249364
0.00128492
0.0022229
0.00299753
0.00355087
0.00386886
0.00383298
0.00374902
0.000549032
0.000435201
0.000317607
0.00022434
0.000124089
-2.32774e-05
-0.000247977
-0.000585149
-0.00106338
-0.00168521
-0.00242536
-0.00323947
-0.00407964
-0.00490549
-0.00568361
-0.00638953
-0.00700788
-0.00752514
-0.00793103
-0.00821509
-0.0083731
-0.00840446
-0.00830999
-0.00809199
-0.00775384
-0.00730092
-0.00673863
-0.00607197
-0.00530495
-0.00444158
-0.00348773
-0.00245365
-0.00135392
-0.000207949
0.0009507
0.00205913
0.00297921
0.0035759
0.00376805
0.00360023
0.000665646
0.000523655
0.000379446
0.000267176
0.000135228
-7.02807e-05
-0.000388681
-0.000859835
-0.00149717
-0.0022809
-0.00316385
-0.00408972
-0.00501111
-0.00589106
-0.00670022
-0.00741823
-0.00803224
-0.00853285
-0.00891465
-0.00917386
-0.00931024
-0.00932588
-0.00922471
-0.00901201
-0.00869426
-0.00827847
-0.00777094
-0.00717617
-0.00649568
-0.00572761
-0.00486759
-0.0039105
-0.00284967
-0.00167809
-0.00040274
0.000920373
0.00214198
0.00307674
0.00358924
0.00335288
0.000711968
0.000543249
0.000369031
0.000228005
5.0477e-05
-0.000226871
-0.000652872
-0.00125874
-0.00204079
-0.00295919
-0.00395084
-0.00495621
-0.00593126
-0.0068423
-0.00766373
-0.00837943
-0.00897987
-0.00945958
-0.00981661
-0.0100511
-0.0101655
-0.0101644
-0.0100537
-0.00984105
-0.00953488
-0.00914374
-0.00867506
-0.00813377
-0.00752077
-0.00683176
-0.00605667
-0.0051804
-0.00418391
-0.00304327
-0.00174008
-0.000301173
0.00113369
0.00236764
0.00313254
0.00305579
0.000662642
0.000470164
0.000264583
8.71357e-05
-0.000143203
-0.000499382
-0.001031
-0.0017573
-0.0026596
-0.00368005
-0.00474774
-0.00580477
-0.00681095
-0.00773558
-0.00855675
-0.009262
-0.00984482
-0.0103027
-0.0106361
-0.0108473
-0.0109408
-0.0109226
-0.0108003
-0.0105833
-0.0102813
-0.00990428
-0.00946094
-0.00895719
-0.00839455
-0.00776852
-0.00706722
-0.006271
-0.00535352
-0.00428114
-0.00301382
-0.00154011
1.76953e-05
0.0014363
0.00247847
0.002981
0.000504416
0.000293645
5.82935e-05
-0.00015842
-0.00044351
-0.000876243
-0.00149982
-0.00232379
-0.00331634
-0.00440761
-0.00552358
-0.0066102
-0.00763064
-0.0085569
-0.00937043
-0.0100616
-0.0106263
-0.0110638
-0.0113759
-0.0115664
-0.0116407
-0.0116059
-0.0114709
-0.011246
-0.0109424
-0.0105711
-0.0101422
-0.00966286
-0.00913597
-0.00855822
-0.00791825
-0.0071956
-0.00636113
-0.00537797
-0.004196
-0.00277208
-0.00117081
0.000331055
0.00162022
0.00252078
0.000238504
1.69084e-05
-0.000243289
-0.000497466
-0.000834379
-0.00133284
-0.00202989
-0.00292418
-0.00397745
-0.00511194
-0.00625446
-0.00735434
-0.00837744
-0.00929817
-0.0101007
-0.0107773
-0.0113254
-0.0117451
-0.0120391
-0.0122117
-0.0122689
-0.0122184
-0.01207
-0.0118348
-0.0115252
-0.0111534
-0.0107307
-0.0102658
-0.00976319
-0.00922154
-0.00863152
-0.00797417
-0.00722053
-0.00633311
-0.00526283
-0.00394919
-0.00238394
-0.000869585
0.000478469
0.00148196
-0.000120018
-0.000344632
-0.000622608
-0.000909325
-0.00128948
-0.00183804
-0.00258941
-0.00352743
-0.00461369
-0.00576991
-0.00692264
-0.00802427
-0.00904263
-0.00995412
-0.0107448
-0.0114081
-0.0119421
-0.0123474
-0.0126266
-0.0127843
-0.0128264
-0.0127613
-0.0125991
-0.012352
-0.0120332
-0.0116564
-0.011234
-0.0107763
-0.0102895
-0.00977437
-0.00922438
-0.00862341
-0.00794467
-0.00715161
-0.00619925
-0.00502551
-0.00359456
-0.00211092
-0.000841502
9.4541e-05
-0.00054705
-0.000766709
-0.00105418
-0.00136585
-0.00177771
-0.00236006
-0.00314547
-0.00410617
-0.00520248
-0.00636338
-0.00751443
-0.00860995
-0.00961916
-0.0105199
-0.0112994
-0.0119516
-0.0124746
-0.0128687
-0.0131365
-0.013282
-0.0133112
-0.0132324
-0.0130564
-0.0127961
-0.0124661
-0.0120811
-0.0116552
-0.0111999
-0.010723
-0.0102274
-0.00970937
-0.00915625
-0.00854471
-0.00784093
-0.00700385
-0.00597806
-0.00472372
-0.00333391
-0.00221081
-0.00141103
-0.00101346
-0.00122102
-0.00150948
-0.00183724
-0.00226976
-0.002871
-0.00366966
-0.00463571
-0.00572564
-0.00687809
-0.00801865
-0.00910277
-0.0101004
-0.0109903
-0.01176
-0.0124036
-0.0129185
-0.0133046
-0.0135639
-0.0136998
-0.013718
-0.0136269
-0.0134374
-0.0131635
-0.0128209
-0.012426
-0.0119942
-0.0115383
-0.0110676
-0.0105868
-0.0100944
-0.00958141
-0.00902868
-0.00840657
-0.00767794
-0.00679787
-0.00572258
-0.00447977
-0.00351152
-0.00285751
-0.00148794
-0.00167958
-0.00196152
-0.00229741
-0.00274013
-0.00334635
-0.0041411
-0.0050978
-0.00616885
-0.00730238
-0.00842585
-0.00949492
-0.0104796
-0.0113591
-0.0121207
-0.0127579
-0.0132673
-0.0136482
-0.0139016
-0.0140303
-0.0140395
-0.0139374
-0.0137353
-0.0134481
-0.0130927
-0.0126873
-0.0122486
-0.0117909
-0.0113245
-0.0108552
-0.0103839
-0.00990439
-0.00940192
-0.00885108
-0.00821788
-0.00746612
-0.00655669
-0.00550955
-0.00468399
-0.00414234
-0.0019453
-0.00211865
-0.00238814
-0.00272478
-0.00316818
-0.00376605
-0.00454345
-0.00547867
-0.00652168
-0.00762739
-0.00872823
-0.00977935
-0.0107502
-0.0116197
-0.0123746
-0.0130071
-0.0135132
-0.013891
-0.0141407
-0.0142643
-0.0142666
-0.0141553
-0.0139421
-0.0136426
-0.0132753
-0.0128599
-0.0124148
-0.0119554
-0.0114928
-0.0110336
-0.0105801
-0.0101287
-0.00966837
-0.00917809
-0.00862727
-0.00798476
-0.00721786
-0.00635889
-0.00567328
-0.00522268
-0.00236486
-0.00251915
-0.00277166
-0.00310237
-0.00353859
-0.00411863
-0.00486696
-0.00576867
-0.0067756
-0.00784658
-0.00891992
-0.00995015
-0.010906
-0.0117654
-0.0125142
-0.0131433
-0.0136475
-0.0140238
-0.0142716
-0.014392
-0.0143893
-0.0142709
-0.0140488
-0.0137393
-0.0133622
-0.0129387
-0.0124889
-0.0120292
-0.0115713
-0.0111222
-0.0106846
-0.0102568
-0.00983114
-0.00939111
-0.0089103
-0.00836049
-0.00771582
-0.00701819
-0.00645727
-0.00608161
-0.0027369
-0.00286646
-0.00310011
-0.00341913
-0.00384141
-0.00439697
-0.00510718
-0.00596443
-0.00692631
-0.0079572
-0.00899751
-0.0100032
-0.010942
-0.0117906
-0.0125332
-0.0131592
-0.0136621
-0.014038
-0.014285
-0.0144038
-0.0143981
-0.0142752
-0.0140471
-0.0137308
-0.0133473
-0.0129191
-0.0124677
-0.0120105
-0.0115596
-0.0111217
-0.0106993
-0.0102919
-0.00989443
-0.00949513
-0.00907244
-0.00860025
-0.00805797
-0.00748612
-0.00703459
-0.00672354
-0.00304968
-0.00315724
-0.00336853
-0.00367017
-0.00407212
-0.00459761
-0.00526365
-0.00606764
-0.00697679
-0.00795875
-0.00896009
-0.0099368
-0.0108557
-0.0116916
-0.0124269
-0.0130493
-0.0135509
-0.0139266
-0.0141737
-0.0142923
-0.0142856
-0.0141608
-0.0139302
-0.0136114
-0.0132262
-0.0127984
-0.0123502
-0.0118997
-0.0114588
-0.0110339
-0.0106272
-0.010238
-0.00986363
-0.00949667
-0.00912068
-0.0087114
-0.00825287
-0.00778241
-0.00741844
-0.00716141
-0.0032946
-0.00338616
-0.00357437
-0.00385414
-0.0042309
-0.00472097
-0.00533799
-0.00608291
-0.00693258
-0.00785667
-0.00881237
-0.00975444
-0.0106487
-0.0114685
-0.012194
-0.0128114
-0.013311
-0.0136864
-0.0139342
-0.0140538
-0.0140482
-0.0139246
-0.0136957
-0.0133796
-0.0129986
-0.0125772
-0.0121381
-0.0116993
-0.0112724
-0.0108632
-0.010473
-0.0101009
-0.00974556
-0.00940383
-0.00906421
-0.00870466
-0.00831358
-0.00792359
-0.00762766
-0.00741472
-0.00348036
-0.00355619
-0.00372033
-0.00397467
-0.00432157
-0.00477171
-0.00533627
-0.00601812
-0.00680239
-0.00766271
-0.00856394
-0.00946378
-0.0103272
-0.0111259
-0.0118382
-0.012448
-0.0129442
-0.013319
-0.013568
-0.0136901
-0.0136881
-0.0135695
-0.0133472
-0.0130397
-0.0126696
-0.0122613
-0.0118374
-0.0114156
-0.0110069
-0.0106161
-0.0102438
-0.00988815
-0.00954869
-0.00922583
-0.00891361
-0.0085932
-0.00825694
-0.00793151
-0.0076844
-0.00750396
-0.00361629
-0.0036751
-0.00381303
-0.00403845
-0.00435165
-0.00475866
-0.00526844
-0.00588487
-0.00659882
-0.00739014
-0.00822892
-0.00907805
-0.00990305
-0.0106745
-0.0113689
-0.0119681
-0.012459
-0.0128324
-0.0130831
-0.0132095
-0.0132143
-0.013105
-0.0128949
-0.0126025
-0.0122503
-0.0118619
-0.0114594
-0.0110595
-0.0106726
-0.0103027
-0.00994917
-0.00960945
-0.00928315
-0.00897384
-0.00868104
-0.00839096
-0.00809722
-0.0078206
-0.00761472
-0.00745037
-0.0037083
-0.00375016
-0.00386029
-0.00405374
-0.00433027
-0.00469221
-0.00514628
-0.00569644
-0.00633772
-0.00705552
-0.00782565
-0.00861625
-0.00939494
-0.0101321
-0.0108029
-0.0113875
-0.0118707
-0.012242
-0.0124951
-0.0126281
-0.0126433
-0.0125485
-0.0123564
-0.0120857
-0.0117578
-0.0113955
-0.0110194
-0.0106454
-0.0102829
-0.00993522
-0.00960086
-0.00927634
-0.00896097
-0.00866085
-0.00838125
-0.00811321
-0.00784923
-0.00760449
-0.0074414
-0.00727563
-0.00376329
-0.00378843
-0.00386989
-0.00402925
-0.00426684
-0.00458269
-0.00498136
-0.00546613
-0.00603516
-0.00667804
-0.00737577
-0.00810189
-0.00882733
-0.00952352
-0.0101649
-0.0107303
-0.0112031
-0.0115714
-0.0118278
-0.0119697
-0.0119992
-0.0119234
-0.0117554
-0.0115121
-0.011214
-0.0108824
-0.0105365
-0.0101906
-0.00985355
-0.009528
-0.00921213
-0.00890157
-0.008595
-0.00830028
-0.00802811
-0.00777514
-0.00753177
-0.00730536
-0.00717933
-0.00700162
-0.00378825
-0.00379687
-0.00384946
-0.00397332
-0.0041704
-0.00443985
-0.00478437
-0.00520665
-0.00570617
-0.00627585
-0.00690093
-0.0075602
-0.00822814
-0.00887812
-0.00948513
-0.0100274
-0.0104872
-0.0108515
-0.0111118
-0.0112647
-0.0113118
-0.0112594
-0.0111196
-0.0109081
-0.0106436
-0.0103455
-0.0100311
-0.0097137
-0.00940133
-0.0090965
-0.00879725
-0.0084987
-0.00819869
-0.00790595
-0.00763582
-0.0073908
-0.0071606
-0.00694048
-0.00685098
-0.00664611
-0.00378885
-0.00378163
-0.00380591
-0.00389359
-0.00404941
-0.00427289
-0.00456553
-0.00492928
-0.00536402
-0.00586509
-0.00642103
-0.00701475
-0.00762448
-0.00822614
-0.00879597
-0.00931238
-0.00975723
-0.0101166
-0.0103811
-0.0105464
-0.0106132
-0.010587
-0.0104782
-0.0103006
-0.0100711
-0.00980681
-0.00952345
-0.00923307
-0.00894307
-0.00865611
-0.00837057
-0.00808138
-0.00778559
-0.00749216
-0.00721987
-0.00697572
-0.00675038
-0.00652312
-0.00647205
-0.00622188
-0.00376933
-0.00374745
-0.00374493
-0.00379678
-0.00391131
-0.00408979
-0.00433347
-0.00464339
-0.0050197
-0.00545879
-0.0059519
-0.00648486
-0.00703928
-0.00759381
-0.00812641
-0.0086163
-0.00904542
-0.00939938
-0.00966819
-0.00984642
-0.00993372
-0.00993456
-0.00985728
-0.00971373
-0.00951834
-0.00928642
-0.00903181
-0.00876541
-0.0084943
-0.0082214
-0.0079456
-0.00766236
-0.00736836
-0.00707199
-0.00679442
-0.00654581
-0.00631637
-0.00606501
-0.00605338
-0.00572552
-0.003733
-0.00369831
-0.00367128
-0.00368836
-0.0037622
-0.00389701
-0.0040948
-0.00435615
-0.00468089
-0.00506606
-0.00550449
-0.00598405
-0.00648905
-0.00700066
-0.00749869
-0.0079635
-0.00837752
-0.0087263
-0.00899935
-0.0091904
-0.00929778
-0.00932458
-0.00927755
-0.00916631
-0.00900277
-0.00880018
-0.00857094
-0.00832487
-0.00806858
-0.0078053
-0.00753483
-0.00725368
-0.00695861
-0.00665685
-0.00637038
-0.00611168
-0.00587322
-0.00557656
-0.00558835
-0.00513138
-0.00368312
-0.00363804
-0.00358903
-0.00357274
-0.00360687
-0.00369965
-0.00385474
-0.00407279
-0.00435296
-0.00469261
-0.00508535
-0.00552049
-0.00598383
-0.00645868
-0.00692674
-0.00736957
-0.00777035
-0.00811476
-0.00839197
-0.00859525
-0.0087215
-0.00877229
-0.0087529
-0.00867101
-0.00853616
-0.00835955
-0.00815216
-0.00792266
-0.00767726
-0.00741952
-0.0071502
-0.00686714
-0.0065677
-0.00625762
-0.00595834
-0.00568522
-0.00543387
-0.00504333
-0.00505829
-0.0043898
-0.00362356
-0.00357068
-0.0035018
-0.00345336
-0.00344896
-0.00350158
-0.00361721
-0.00379702
-0.00403972
-0.00434217
-0.00469812
-0.00509779
-0.00552805
-0.00597354
-0.0064173
-0.00684208
-0.00723202
-0.00757325
-0.0078546
-0.00806919
-0.0082128
-0.00828542
-0.00829073
-0.00823486
-0.00812556
-0.007972
-0.00778342
-0.00756753
-0.00733001
-0.00707459
-0.00680284
-0.00651422
-0.00620706
-0.00588537
-0.00556881
-0.00527684
-0.00500493
-0.00443762
-0.00444953
-0.003445
-0.00355901
-0.00350049
-0.00341278
-0.00333286
-0.00329108
-0.00330566
-0.00338539
-0.00353207
-0.00374397
-0.00401707
-0.00434473
-0.00471729
-0.00512229
-0.0055454
-0.00597078
-0.00638205
-0.00676393
-0.00710335
-0.00738931
-0.00761453
-0.0077732
-0.00786547
-0.00789329
-0.00786091
-0.0077746
-0.00764189
-0.00747026
-0.00726628
-0.00703503
-0.00678008
-0.00650344
-0.00620572
-0.0058864
-0.00554872
-0.00520933
-0.00488473
-0.00455074
-0.00378201
-0.00378976
-0.00225787
-0.00349557
-0.00343214
-0.00332465
-0.00321317
-0.00313532
-0.00311454
-0.00316197
-0.00328004
-0.00346667
-0.00371697
-0.00402348
-0.00437627
-0.00476308
-0.00516993
-0.00558197
-0.00598381
-0.00636077
-0.0067001
-0.00699134
-0.00722641
-0.00739938
-0.00751017
-0.0075593
-0.00754926
-0.00748484
-0.00737218
-0.00721728
-0.00702532
-0.0068005
-0.00654577
-0.00626279
-0.00595235
-0.00561482
-0.00525215
-0.00487877
-0.00450086
-0.00406113
-0.00304802
-0.00310406
-0.000808699
-0.00343813
-0.00337087
-0.00324033
-0.00309637
-0.00298311
-0.00292866
-0.00294622
-0.00303896
-0.00320436
-0.00343656
-0.00372714
-0.00406572
-0.00443992
-0.00483597
-0.00523949
-0.00563584
-0.00601113
-0.00635291
-0.00665088
-0.00689708
-0.00708597
-0.00721521
-0.00728584
-0.00729872
-0.0072572
-0.00716584
-0.00702922
-0.00685115
-0.00663454
-0.00638126
-0.00609165
-0.00576559
-0.00540279
-0.00500245
-0.00457349
-0.00409913
-0.00349412
-0.00221783
-0.00222065
0.000983902
-0.00339902
-0.00332148
-0.0031614
-0.00298112
-0.00283149
-0.00274345
-0.00273162
-0.00279996
-0.00294587
-0.00316257
-0.00344045
-0.00376845
-0.00413411
-0.00452388
-0.0049236
-0.00531921
-0.00569732
-0.00604583
-0.00635439
-0.00661506
-0.00682289
-0.00697399
-0.00706821
-0.00710632
-0.00709016
-0.00702264
-0.00690683
-0.00674506
-0.0065387
-0.0062873
-0.00598962
-0.00564398
-0.00524549
-0.00478435
-0.00425831
-0.00361216
-0.0027454
-0.00115205
-0.000645996
0.00353279
-0.00340021
-0.00329568
-0.0030994
-0.00286656
-0.00267224
-0.00254392
-0.00249775
-0.00253835
-0.00266298
-0.00286415
-0.00313074
-0.00345119
-0.00381283
-0.004202
-0.00460459
-0.00500668
-0.00539522
-0.00575862
-0.00608583
-0.00636759
-0.00659922
-0.00677687
-0.00689828
-0.00696375
-0.00697424
-0.00693117
-0.00683611
-0.00668998
-0.00649281
-0.00624224
-0.00593365
-0.00555578
-0.0050993
-0.00453107
-0.00382355
-0.00285268
-0.00150688
0.000738523
0.00236236
0.00821079
-0.00348266
-0.00331447
-0.00303363
-0.00272789
-0.00246577
-0.00228524
-0.002198
-0.00220862
-0.00231379
-0.00250531
-0.0027718
-0.00309821
-0.0034697
-0.00387164
-0.00428947
-0.00470894
-0.00511667
-0.00550069
-0.00585115
-0.00615936
-0.00641884
-0.00662474
-0.00677357
-0.00686449
-0.00689781
-0.00687412
-0.00679408
-0.00665744
-0.00646276
-0.00620365
-0.0058707
-0.00544115
-0.00488852
-0.00413268
-0.00310041
-0.00153956
0.000696207
0.0043325
0.0083471
0.017895
-0.00378486
-0.00344783
-0.00302282
-0.00260726
-0.0022726
-0.00203978
-0.00191784
-0.00190795
-0.00200367
-0.00219322
-0.00246341
-0.00279905
-0.00318411
-0.00360283
-0.0040398
-0.00448014
-0.00490987
-0.00531643
-0.00568943
-0.00602051
-0.00630224
-0.00652902
-0.00669692
-0.00680435
-0.00685095
-0.00683685
-0.0067619
-0.00662455
-0.00642189
-0.00614247
-0.00576922
-0.00526018
-0.00456249
-0.0035363
-0.00202519
0.000432089
0.00414436
0.0104847
0.0191898
0.0356081
-0.0046581
-0.00364721
-0.00294932
-0.00241722
-0.0020247
-0.00175976
-0.00162327
-0.00161167
-0.0017136
-0.00191307
-0.00219355
-0.00254054
-0.00293864
-0.00337193
-0.00382445
-0.00428091
-0.00472683
-0.00514939
-0.00553744
-0.00588206
-0.00617564
-0.00641266
-0.00658918
-0.00670345
-0.00675466
-0.00674274
-0.00666662
-0.0065233
-0.00630588
-0.00600004
-0.0055828
-0.00500345
-0.00417529
-0.0029193
-0.000914833
0.00262444
0.00849247
0.0191719
0.0353935
0.0614227
-0.00639789
-0.00254881
-0.00160462
-0.00129593
-0.00102557
-0.000815644
-0.000729399
-0.000778522
-0.000944275
-0.00120274
-0.00153413
-0.00192393
-0.00235862
-0.00282372
-0.00330384
-0.00378412
-0.00425038
-0.00469028
-0.00509279
-0.00544934
-0.00575261
-0.00599779
-0.00618103
-0.00630106
-0.00635661
-0.00634797
-0.00627292
-0.00612805
-0.00590226
-0.00557714
-0.00511608
-0.00446785
-0.0035571
-0.00222634
5.12708e-05
0.00445956
0.0132122
0.0289283
0.0542279
0.0867248
)
;

boundaryField
{
    movingWall
    {
        type            zeroGradient;
    }
    fixedWalls
    {
        type            zeroGradient;
    }
    frontAndBack
    {
        type            empty;
    }
}


// ************************************************************************* //
