/*--------------------------------*- C++ -*----------------------------------*\
  =========                 |
  \\      /  F ield         | OpenFOAM: The Open Source CFD Toolbox
   \\    /   O peration     | Website:  https://openfoam.org
    \\  /    A nd           | Version:  12
     \\/     M anipulation  |
\*---------------------------------------------------------------------------*/
FoamFile
{
    format      ascii;
    class       surfaceScalarField;
    location    "2.5";
    object      phi;
}
// * * * * * * * * * * * * * * * * * * * * * * * * * * * * * * * * * * * * * //

dimensions      [0 3 -1 0 0 0 0];

internalField   nonuniform List<scalar> 
3120
(
4.89016e-08
-4.8904e-08
1.07252e-07
-5.83506e-08
1.53513e-07
-4.62608e-08
1.87122e-07
-3.36096e-08
2.12367e-07
-2.52451e-08
2.31257e-07
-1.88898e-08
2.41769e-07
-1.05121e-08
2.39509e-07
2.26007e-09
2.18075e-07
2.14338e-08
1.76353e-07
4.17222e-08
1.18421e-07
5.79318e-08
3.32686e-08
8.51524e-08
-1.01164e-07
1.34432e-07
-3.14173e-07
2.13009e-07
-6.28249e-07
3.14076e-07
-1.02274e-06
3.94487e-07
-1.43353e-06
4.10792e-07
-1.81398e-06
3.80454e-07
-2.14651e-06
3.32532e-07
-2.42368e-06
2.77168e-07
-2.64384e-06
2.20159e-07
-2.80663e-06
1.62794e-07
-2.91123e-06
1.04597e-07
-2.95902e-06
4.77914e-08
-2.94677e-06
-1.22551e-08
-2.87131e-06
-7.54598e-08
-2.73369e-06
-1.37616e-07
-2.52458e-06
-2.0911e-07
-2.24559e-06
-2.78989e-07
-1.89181e-06
-3.53785e-07
-1.46699e-06
-4.24814e-07
-9.86711e-07
-4.80283e-07
-4.85119e-07
-5.01592e-07
-1.76328e-08
-4.67486e-07
3.57766e-07
-3.75399e-07
5.24593e-07
-1.66826e-07
4.63553e-07
6.10395e-08
2.94895e-07
1.68658e-07
1.18391e-07
1.76504e-07
1.18391e-07
6.10124e-08
-1.09916e-07
1.16921e-07
-1.14259e-07
1.47829e-07
-7.71685e-08
1.59749e-07
-4.55299e-08
1.58049e-07
-2.35453e-08
1.42339e-07
-3.17968e-09
1.06429e-07
2.53974e-08
4.04562e-08
6.8233e-08
-6.79093e-08
1.29799e-07
-2.41555e-07
2.15368e-07
-5.12546e-07
3.28923e-07
-8.91811e-07
4.64418e-07
-1.35691e-06
5.99535e-07
-1.85419e-06
7.10289e-07
-2.31084e-06
7.70719e-07
-2.68713e-06
7.70776e-07
-3.00395e-06
7.2762e-07
-3.2737e-06
6.50198e-07
-3.4964e-06
5.55232e-07
-3.67099e-06
4.51763e-07
-3.79781e-06
3.46972e-07
-3.87761e-06
2.42594e-07
-3.91148e-06
1.38469e-07
-3.89667e-06
3.29871e-08
-3.83518e-06
-7.37525e-08
-3.72437e-06
-1.86266e-07
-3.55753e-06
-3.04451e-07
-3.33371e-06
-4.3293e-07
-3.04402e-06
-5.68684e-07
-2.68803e-06
-7.09778e-07
-2.26512e-06
-8.47718e-07
-1.77968e-06
-9.65727e-07
-1.24937e-06
-1.0319e-06
-7.0324e-07
-1.01361e-06
-2.17148e-07
-8.61491e-07
1.50938e-07
-5.34913e-07
2.90553e-07
-7.8575e-08
2.41556e-07
2.17655e-07
1.12096e-07
3.05965e-07
2.30487e-07
4.3194e-08
-1.5311e-07
5.9025e-08
-1.3009e-07
4.8863e-08
-6.70066e-08
1.95879e-08
-1.62549e-08
-3.01704e-08
2.62129e-08
-1.09622e-07
7.6272e-08
-2.33455e-07
1.4923e-07
-4.21202e-07
2.5598e-07
-6.93004e-07
4.01601e-07
-1.0565e-06
5.78866e-07
-1.49183e-06
7.64248e-07
-1.95504e-06
9.27626e-07
-2.39872e-06
1.04322e-06
-2.78843e-06
1.1e-06
-3.11401e-06
1.09629e-06
-3.37973e-06
1.0365e-06
-3.59285e-06
9.40736e-07
-3.76512e-06
8.22471e-07
-3.90185e-06
6.91962e-07
-4.00421e-06
5.54122e-07
-4.07465e-06
4.17408e-07
-4.11331e-06
2.81254e-07
-4.12059e-06
1.45755e-07
-4.0932e-06
5.59213e-09
-4.03431e-06
-1.32641e-07
-3.94128e-06
-2.79298e-07
-3.81009e-06
-4.35638e-07
-3.6382e-06
-6.0482e-07
-3.41867e-06
-7.88216e-07
-3.14376e-06
-9.84688e-07
-2.80692e-06
-1.18456e-06
-2.40197e-06
-1.37068e-06
-1.931e-06
-1.50287e-06
-1.40945e-06
-1.53517e-06
-8.65171e-07
-1.40577e-06
-3.60097e-07
-1.03999e-06
-1.9543e-08
-4.19129e-07
7.27416e-08
1.2537e-07
4.71362e-08
3.3157e-07
2.77623e-07
8.62379e-09
-1.61734e-07
-2.27215e-08
-9.8745e-08
-7.9443e-08
-1.02851e-08
-1.57823e-07
6.21253e-08
-2.68413e-07
1.36802e-07
-4.27247e-07
2.35106e-07
-6.51784e-07
3.73767e-07
-9.54243e-07
5.58439e-07
-1.33052e-06
7.77876e-07
-1.75448e-06
1.00283e-06
-2.18838e-06
1.19815e-06
-2.59388e-06
1.33313e-06
-2.94144e-06
1.39078e-06
-3.22167e-06
1.38024e-06
-3.44302e-06
1.31764e-06
-3.61938e-06
1.21286e-06
-3.75913e-06
1.08048e-06
-3.86813e-06
9.31471e-07
-3.95272e-06
7.76551e-07
-4.0181e-06
6.19501e-07
-4.06244e-06
4.61752e-07
-4.0837e-06
3.02512e-07
-4.08134e-06
1.43401e-07
-4.05557e-06
-2.01821e-08
-4.00626e-06
-1.81949e-07
-3.93267e-06
-3.52885e-07
-3.83299e-06
-5.35318e-07
-3.70556e-06
-7.32255e-07
-3.54767e-06
-9.46106e-07
-3.35618e-06
-1.17618e-06
-3.12428e-06
-1.41646e-06
-2.83895e-06
-1.65601e-06
-2.4751e-06
-1.86673e-06
-2.02304e-06
-1.98722e-06
-1.48819e-06
-1.94062e-06
-8.91624e-07
-1.63655e-06
-3.37444e-07
-9.73309e-07
-6.98324e-08
-1.42242e-07
-9.67918e-11
2.61834e-07
2.77526e-07
-3.41259e-08
-1.27608e-07
-1.15437e-07
-1.74335e-08
-2.19293e-07
9.35706e-08
-3.51931e-07
1.94763e-07
-5.26835e-07
3.11706e-07
-7.5978e-07
4.68051e-07
-1.06056e-06
6.74546e-07
-1.42391e-06
9.21786e-07
-1.82462e-06
1.17859e-06
-2.22897e-06
1.40718e-06
-2.60153e-06
1.57071e-06
-2.91439e-06
1.64599e-06
-3.16489e-06
1.64128e-06
-3.36203e-06
1.57738e-06
-3.51458e-06
1.47018e-06
-3.63355e-06
1.33183e-06
-3.72721e-06
1.17415e-06
-3.80091e-06
1.00517e-06
-3.85321e-06
8.28847e-07
-3.88503e-06
6.51317e-07
-3.89688e-06
4.7361e-07
-3.8925e-06
2.98131e-07
-3.87348e-06
1.24374e-07
-3.84322e-06
-5.04415e-08
-3.79827e-06
-2.26898e-07
-3.7398e-06
-4.11355e-07
-3.66766e-06
-6.07458e-07
-3.58055e-06
-8.19361e-07
-3.4761e-06
-1.05056e-06
-3.34997e-06
-1.30231e-06
-3.19522e-06
-1.57121e-06
-3.00462e-06
-1.8466e-06
-2.76251e-06
-2.10884e-06
-2.43515e-06
-2.31458e-06
-1.98923e-06
-2.38654e-06
-1.41201e-06
-2.21377e-06
-7.13997e-07
-1.67132e-06
-1.70319e-07
-6.85919e-07
-7.20295e-09
9.87181e-08
2.70323e-07
-7.95397e-08
-4.80686e-08
-2.05635e-07
1.08661e-07
-3.56605e-07
2.44541e-07
-5.39296e-07
3.77454e-07
-7.67686e-07
5.40097e-07
-1.05225e-06
7.52611e-07
-1.39146e-06
1.01376e-06
-1.7646e-06
1.29493e-06
-2.14198e-06
1.55596e-06
-2.4907e-06
1.7559e-06
-2.78266e-06
1.86266e-06
-3.01316e-06
1.87649e-06
-3.19306e-06
1.82119e-06
-3.33198e-06
1.7163e-06
-3.43705e-06
1.57525e-06
-3.51502e-06
1.4098e-06
-3.56915e-06
1.22827e-06
-3.60256e-06
1.03858e-06
-3.61872e-06
8.45005e-07
-3.62036e-06
6.5296e-07
-3.61043e-06
4.63681e-07
-3.59011e-06
2.7781e-07
-3.56018e-06
9.44395e-08
-3.52246e-06
-8.81586e-08
-3.47686e-06
-2.72503e-07
-3.42529e-06
-4.62924e-07
-3.36899e-06
-6.63759e-07
-3.3084e-06
-8.79953e-07
-3.24284e-06
-1.11611e-06
-3.16975e-06
-1.3754e-06
-3.08336e-06
-1.6576e-06
-2.97291e-06
-1.95705e-06
-2.82401e-06
-2.25775e-06
-2.61316e-06
-2.52542e-06
-2.29467e-06
-2.70503e-06
-1.81911e-06
-2.68933e-06
-1.15369e-06
-2.33674e-06
-3.85937e-07
-1.45367e-06
-2.89027e-08
-2.58316e-07
2.4142e-07
-1.19583e-07
7.15141e-08
-2.86667e-07
2.75746e-07
-4.76562e-07
4.34435e-07
-6.97922e-07
5.98814e-07
-9.6175e-07
8.03925e-07
-1.27188e-06
1.06274e-06
-1.61476e-06
1.35664e-06
-1.96519e-06
1.64536e-06
-2.29505e-06
1.88582e-06
-2.57577e-06
2.03662e-06
-2.79627e-06
2.08317e-06
-2.9656e-06
2.04582e-06
-3.09423e-06
1.94981e-06
-3.18885e-06
1.81092e-06
-3.25522e-06
1.64162e-06
-3.29805e-06
1.45263e-06
-3.32167e-06
1.25189e-06
-3.32938e-06
1.04629e-06
-3.32453e-06
8.40153e-07
-3.30876e-06
6.37194e-07
-3.28367e-06
4.38589e-07
-3.25049e-06
2.44638e-07
-3.21068e-06
5.46242e-08
-3.16583e-06
-1.33005e-07
-3.11752e-06
-3.2082e-07
-3.06791e-06
-5.1253e-07
-3.01908e-06
-7.12593e-07
-2.97271e-06
-9.26316e-07
-2.92958e-06
-1.15925e-06
-2.88863e-06
-1.41635e-06
-2.84585e-06
-1.70038e-06
-2.79332e-06
-2.00958e-06
-2.7173e-06
-2.33376e-06
-2.59413e-06
-2.6486e-06
-2.39149e-06
-2.90767e-06
-2.0516e-06
-3.02921e-06
-1.5131e-06
-2.87525e-06
-7.13341e-07
-2.25343e-06
-8.7736e-08
-8.83921e-07
1.53684e-07
-1.52862e-07
2.24377e-07
-3.5064e-07
4.73524e-07
-5.68423e-07
6.52218e-07
-8.13881e-07
8.44273e-07
-1.09437e-06
1.08441e-06
-1.40567e-06
1.37405e-06
-1.7285e-06
1.67947e-06
-2.04009e-06
1.95695e-06
-2.31402e-06
2.15974e-06
-2.53286e-06
2.25546e-06
-2.69925e-06
2.24956e-06
-2.82413e-06
2.17069e-06
-2.91513e-06
2.04082e-06
-2.97751e-06
1.8733e-06
-3.01643e-06
1.68054e-06
-3.03627e-06
1.47247e-06
-3.04089e-06
1.25651e-06
-3.03306e-06
1.03847e-06
-3.01508e-06
8.22169e-07
-2.98819e-06
6.103e-07
-2.95352e-06
4.03922e-07
-2.91223e-06
2.03352e-07
-2.86575e-06
8.14419e-09
-2.81577e-06
-1.82985e-07
-2.76439e-06
-3.72207e-07
-2.71414e-06
-5.6278e-07
-2.66773e-06
-7.58998e-07
-2.62778e-06
-9.66273e-07
-2.59616e-06
-1.19087e-06
-2.57322e-06
-1.43929e-06
-2.55658e-06
-1.71702e-06
-2.53989e-06
-2.02627e-06
-2.51101e-06
-2.36265e-06
-2.44967e-06
-2.70994e-06
-2.32569e-06
-3.03165e-06
-2.09534e-06
-3.25956e-06
-1.69876e-06
-3.27184e-06
-1.05282e-06
-2.89937e-06
-2.35205e-07
-1.70153e-06
-8.15212e-08
-1.76089e-07
4.00465e-07
-3.9328e-07
6.90715e-07
-6.26631e-07
8.85568e-07
-8.81716e-07
1.09936e-06
-1.16194e-06
1.36463e-06
-1.45652e-06
1.66863e-06
-1.74724e-06
1.97019e-06
-2.01348e-06
2.22319e-06
-2.23477e-06
2.38104e-06
-2.40479e-06
2.42548e-06
-2.53162e-06
2.37638e-06
-2.62443e-06
2.26351e-06
-2.68875e-06
2.10514e-06
-2.7294e-06
1.91395e-06
-2.75103e-06
1.70217e-06
-2.75748e-06
1.47892e-06
-2.75178e-06
1.25081e-06
-2.73601e-06
1.0227e-06
-2.71162e-06
7.97781e-07
-2.67944e-06
5.78122e-07
-2.64025e-06
3.64735e-07
-2.59498e-06
1.5808e-07
-2.54487e-06
-4.19627e-08
-2.49161e-06
-2.36245e-07
-2.43739e-06
-4.26428e-07
-2.38495e-06
-6.15221e-07
-2.33743e-06
-8.06521e-07
-2.29809e-06
-1.00561e-06
-2.26981e-06
-1.21915e-06
-2.25425e-06
-1.45484e-06
-2.25074e-06
-1.72054e-06
-2.25479e-06
-2.02222e-06
-2.25645e-06
-2.36099e-06
-2.23778e-06
-2.72861e-06
-2.17073e-06
-3.0987e-06
-2.01569e-06
-3.41459e-06
-1.73754e-06
-3.54999e-06
-1.26378e-06
-3.37314e-06
-4.39225e-07
-2.52609e-06
-5.20746e-07
-1.87826e-07
5.88291e-07
-4.13341e-07
9.16231e-07
-6.50637e-07
1.12286e-06
-9.02923e-07
1.35164e-06
-1.16905e-06
1.63076e-06
-1.43648e-06
1.93607e-06
-1.69021e-06
2.22391e-06
-1.91189e-06
2.44487e-06
-2.08891e-06
2.55806e-06
-2.22215e-06
2.55873e-06
-2.32044e-06
2.47467e-06
-2.39062e-06
2.33369e-06
-2.43717e-06
2.15169e-06
-2.46461e-06
1.94139e-06
-2.4769e-06
1.71447e-06
-2.47714e-06
1.47916e-06
-2.46754e-06
1.2412e-06
-2.44945e-06
1.00461e-06
-2.42364e-06
7.71974e-07
-2.39053e-06
5.45012e-07
-2.35057e-06
3.24777e-07
-2.30444e-06
1.11947e-07
-2.25319e-06
-9.32119e-08
-2.1984e-06
-2.91039e-07
-2.14221e-06
-4.82618e-07
-2.08739e-06
-6.70036e-07
-2.03725e-06
-8.56667e-07
-1.99539e-06
-1.04746e-06
-1.96536e-06
-1.24918e-06
-1.94986e-06
-1.47035e-06
-1.94968e-06
-1.72072e-06
-1.96219e-06
-2.0097e-06
-1.97975e-06
-2.34342e-06
-1.98763e-06
-2.72073e-06
-1.96082e-06
-3.12551e-06
-1.86296e-06
-3.51245e-06
-1.65693e-06
-3.75602e-06
-1.29355e-06
-3.73652e-06
-6.46901e-07
-3.17273e-06
-1.16765e-06
-1.8837e-07
7.7666e-07
-4.12035e-07
1.1399e-06
-6.43355e-07
1.35418e-06
-8.82678e-07
1.59097e-06
-1.1255e-06
1.87359e-06
-1.36105e-06
2.17161e-06
-1.57658e-06
2.43945e-06
-1.75842e-06
2.6267e-06
-1.89996e-06
2.6996e-06
-2.00583e-06
2.66459e-06
-2.08365e-06
2.55249e-06
-2.13841e-06
2.38845e-06
-2.17409e-06
2.18737e-06
-2.19465e-06
1.96194e-06
-2.20328e-06
1.7231e-06
-2.20226e-06
1.47814e-06
-2.19303e-06
1.23197e-06
-2.17627e-06
9.87861e-07
-2.15226e-06
7.47961e-07
-2.12107e-06
5.1382e-07
-2.08286e-06
2.86572e-07
-2.03807e-06
6.71543e-08
-1.98758e-06
-1.43706e-07
-1.93284e-06
-3.45775e-07
-1.87595e-06
-5.39514e-07
-1.8196e-06
-7.26382e-07
-1.76708e-06
-9.09186e-07
-1.72209e-06
-1.09245e-06
-1.68847e-06
-1.2828e-06
-1.66963e-06
-1.4892e-06
-1.66749e-06
-1.72285e-06
-1.68109e-06
-1.99611e-06
-1.70475e-06
-2.31977e-06
-1.72667e-06
-2.6988e-06
-1.72576e-06
-3.12643e-06
-1.66787e-06
-3.57035e-06
-1.49977e-06
-3.92412e-06
-1.2109e-06
-4.02538e-06
-7.31231e-07
-3.65241e-06
-1.89888e-06
-1.79188e-07
9.55848e-07
-3.92311e-07
1.35302e-06
-6.09634e-07
1.57151e-06
-8.28479e-07
1.80981e-06
-1.04299e-06
2.0881e-06
-1.24473e-06
2.37335e-06
-1.42419e-06
2.6189e-06
-1.57092e-06
2.77343e-06
-1.6841e-06
2.81279e-06
-1.76959e-06
2.75008e-06
-1.83275e-06
2.61565e-06
-1.87743e-06
2.43313e-06
-1.9071e-06
2.21704e-06
-1.92503e-06
1.97987e-06
-1.93358e-06
1.73164e-06
-1.93426e-06
1.47883e-06
-1.92786e-06
1.22557e-06
-1.91456e-06
9.74561e-07
-1.89423e-06
7.27629e-07
-1.86663e-06
4.86226e-07
-1.83172e-06
2.51654e-07
-1.78972e-06
2.51563e-08
-1.74139e-06
-1.92032e-07
-1.68812e-06
-3.99047e-07
-1.63193e-06
-5.95701e-07
-1.57547e-06
-7.82846e-07
-1.52189e-06
-9.62766e-07
-1.47477e-06
-1.13957e-06
-1.43795e-06
-1.31962e-06
-1.41512e-06
-1.51202e-06
-1.40908e-06
-1.7289e-06
-1.4202e-06
-1.98498e-06
-1.44462e-06
-2.29535e-06
-1.47264e-06
-2.67078e-06
-1.48676e-06
-3.11231e-06
-1.45858e-06
-3.59853e-06
-1.33006e-06
-4.05263e-06
-1.09472e-06
-4.26073e-06
-6.7222e-07
-4.0749e-06
-2.5711e-06
-1.62501e-07
1.11835e-06
-3.58004e-07
1.54852e-06
-5.55123e-07
1.76863e-06
-7.48698e-07
2.00339e-06
-9.32553e-07
2.27195e-06
-1.10032e-06
2.54112e-06
-1.24639e-06
2.76498e-06
-1.36228e-06
2.88932e-06
-1.45288e-06
2.90339e-06
-1.52241e-06
2.81961e-06
-1.5748e-06
2.66803e-06
-1.61294e-06
2.47127e-06
-1.63965e-06
2.24376e-06
-1.65739e-06
1.99761e-06
-1.66774e-06
1.742e-06
-1.67158e-06
1.48266e-06
-1.66916e-06
1.22315e-06
-1.6603e-06
9.65694e-07
-1.64454e-06
7.11875e-07
-1.62143e-06
4.63111e-07
-1.59069e-06
2.20918e-07
-1.55246e-06
-1.30752e-08
-1.50741e-06
-2.37083e-07
-1.45686e-06
-4.49598e-07
-1.40282e-06
-6.49734e-07
-1.3479e-06
-8.37768e-07
-1.29512e-06
-1.01555e-06
-1.24783e-06
-1.18686e-06
-1.20963e-06
-1.35783e-06
-1.18417e-06
-1.53748e-06
-1.17465e-06
-1.73841e-06
-1.18257e-06
-1.97706e-06
-1.20572e-06
-2.2722e-06
-1.23611e-06
-2.64038e-06
-1.25897e-06
-3.08946e-06
-1.24942e-06
-3.60807e-06
-1.15912e-06
-4.14294e-06
-9.49841e-07
-4.47001e-06
-5.9308e-07
-4.43166e-06
-3.16418e-06
-1.39452e-07
1.2578e-06
-3.12207e-07
1.72128e-06
-4.85324e-07
1.94174e-06
-6.51127e-07
2.16919e-06
-8.03554e-07
2.42438e-06
-9.38412e-07
2.67598e-06
-1.05305e-06
2.87961e-06
-1.14186e-06
2.97813e-06
-1.21336e-06
2.97489e-06
-1.26982e-06
2.87606e-06
-1.31382e-06
2.71203e-06
-1.34741e-06
2.50487e-06
-1.37268e-06
2.26903e-06
-1.39126e-06
2.01618e-06
-1.40405e-06
1.75479e-06
-1.41141e-06
1.49002e-06
-1.41319e-06
1.22493e-06
-1.40893e-06
9.61433e-07
-1.39799e-06
7.00933e-07
-1.37973e-06
4.44852e-07
-1.35372e-06
1.94913e-07
-1.32002e-06
-4.67789e-08
-1.2792e-06
-2.77904e-07
-1.23258e-06
-4.96223e-07
-1.18216e-06
-7.00146e-07
-1.13054e-06
-8.8939e-07
-1.08064e-06
-1.06545e-06
-1.03555e-06
-1.23195e-06
-9.98519e-07
-1.39486e-06
-9.729e-07
-1.5631e-06
-9.6194e-07
-1.74937e-06
-9.67859e-07
-1.97114e-06
-9.89905e-07
-2.25015e-06
-1.02182e-06
-2.60847e-06
-1.05074e-06
-3.06054e-06
-1.0545e-06
-3.60431e-06
-9.9907e-07
-4.19837e-06
-8.14936e-07
-4.65414e-06
-5.10388e-07
-4.73621e-06
-3.67457e-06
-1.12726e-07
1.37053e-06
-2.58818e-07
1.86737e-06
-4.05215e-07
2.08814e-06
-5.41914e-07
2.30589e-06
-6.6314e-07
2.5456e-06
-7.66722e-07
2.77956e-06
-8.51512e-07
2.9644e-06
-9.16546e-07
3.04316e-06
-9.70669e-07
3.02902e-06
-1.01536e-06
2.92075e-06
-1.05201e-06
2.74868e-06
-1.08178e-06
2.53464e-06
-1.10593e-06
2.29318e-06
-1.12533e-06
2.03558e-06
-1.1403e-06
1.76977e-06
-1.15077e-06
1.50049e-06
-1.15632e-06
1.23048e-06
-1.15631e-06
9.6142e-07
-1.14998e-06
6.9461e-07
-1.13663e-06
4.315e-07
-1.11573e-06
1.7401e-07
-1.0872e-06
-7.53123e-08
-1.05157e-06
-3.13525e-07
-1.01014e-06
-5.37656e-07
-9.64907e-07
-7.4538e-07
-9.18444e-07
-9.35853e-07
-8.73587e-07
-1.11031e-06
-8.33201e-07
-1.27233e-06
-8.00128e-07
-1.42793e-06
-7.77283e-07
-1.58594e-06
-7.67688e-07
-1.75897e-06
-7.73918e-07
-1.96491e-06
-7.9638e-07
-2.22769e-06
-8.3045e-07
-2.5744e-06
-8.6455e-07
-3.02644e-06
-8.78703e-07
-3.59016e-06
-8.44992e-07
-4.23208e-06
-6.96712e-07
-4.80242e-06
-4.40497e-07
-4.99243e-06
-4.11506e-06
-8.363e-08
1.45416e-06
-2.01054e-07
1.9848e-06
-3.1941e-07
2.2065e-06
-4.26886e-07
2.41336e-06
-5.17897e-07
2.63661e-06
-5.91495e-07
2.85316e-06
-6.47721e-07
3.02063e-06
-6.90938e-07
3.08638e-06
-7.28246e-07
3.06633e-06
-7.61376e-07
2.95388e-06
-7.90654e-07
2.77796e-06
-8.16303e-07
2.56029e-06
-8.38772e-07
2.31565e-06
-8.58239e-07
2.05505e-06
-8.74514e-07
1.78605e-06
-8.8718e-07
1.51315e-06
-8.95639e-07
1.23894e-06
-8.99165e-07
9.64947e-07
-8.96981e-07
6.92426e-07
-8.88359e-07
4.22878e-07
-8.7276e-07
1.58411e-07
-8.50022e-07
-9.80509e-08
-8.20616e-07
-3.4293e-07
-7.85759e-07
-5.72513e-07
-7.47419e-07
-7.8372e-07
-7.08114e-07
-9.75158e-07
-6.70563e-07
-1.14786e-06
-6.37384e-07
-1.30551e-06
-6.11023e-07
-1.45429e-06
-5.93917e-07
-1.60305e-06
-5.88709e-07
-1.76418e-06
-5.98052e-07
-1.95557e-06
-6.23255e-07
-2.20249e-06
-6.61392e-07
-2.53626e-06
-7.02366e-07
-2.98546e-06
-7.28433e-07
-3.56409e-06
-7.1468e-07
-4.24583e-06
-5.97448e-07
-4.91965e-06
-3.74393e-07
-5.21548e-06
-4.48946e-06
-5.28088e-08
1.50696e-06
-1.4126e-07
2.07325e-06
-2.31371e-07
2.29661e-06
-3.1035e-07
2.49234e-06
-3.72487e-07
2.69875e-06
-4.17204e-07
2.89788e-06
-4.4671e-07
3.05013e-06
-4.69155e-07
3.10882e-06
-4.89127e-07
3.0863e-06
-5.09849e-07
2.9746e-06
-5.30815e-07
2.79892e-06
-5.51281e-07
2.58075e-06
-5.70874e-07
2.33524e-06
-5.89129e-07
2.0733e-06
-6.05417e-07
1.80233e-06
-6.1905e-07
1.52679e-06
-6.29303e-07
1.24919e-06
-6.35432e-07
9.71076e-07
-6.36706e-07
6.937e-07
-6.32465e-07
4.18637e-07
-6.2223e-07
1.48176e-07
-6.0584e-07
-1.14441e-07
-5.83697e-07
-3.65073e-07
-5.56921e-07
-5.99289e-07
-5.27357e-07
-8.13284e-07
-4.97367e-07
-1.00515e-06
-4.6946e-07
-1.17577e-06
-4.45963e-07
-1.32901e-06
-4.28926e-07
-1.47133e-06
-4.20316e-07
-1.61166e-06
-4.22336e-07
-1.76216e-06
-4.3752e-07
-1.94039e-06
-4.67798e-07
-2.17221e-06
-5.11766e-07
-2.49229e-06
-5.60819e-07
-2.93641e-06
-5.98428e-07
-3.52648e-06
-5.99057e-07
-4.2452e-06
-5.17182e-07
-5.00153e-06
-3.28565e-07
-5.4041e-06
-4.81802e-06
-2.279e-08
1.52975e-06
-8.15013e-08
2.13196e-06
-1.43954e-07
2.35906e-06
-1.95728e-07
2.54412e-06
-2.30624e-07
2.73365e-06
-2.48064e-07
2.91532e-06
-2.52481e-07
3.05455e-06
-2.54305e-07
3.11065e-06
-2.56235e-07
3.08823e-06
-2.63018e-07
2.98139e-06
-2.73951e-07
2.80986e-06
-2.87508e-07
2.59431e-06
-3.02537e-07
2.35027e-06
-3.17952e-07
2.08872e-06
-3.32724e-07
1.81711e-06
-3.45918e-07
1.53998e-06
-3.56722e-07
1.26e-06
-3.64406e-07
9.7876e-07
-3.68345e-07
6.97638e-07
-3.68023e-07
4.18316e-07
-3.631e-07
1.43253e-07
-3.53511e-07
-1.24029e-07
-3.39634e-07
-3.78951e-07
-3.22471e-07
-6.16452e-07
-3.03645e-07
-8.3211e-07
-2.85212e-07
-1.02358e-06
-2.69323e-07
-1.19166e-06
-2.57913e-07
-1.34042e-06
-2.52611e-07
-1.47663e-06
-2.54936e-07
-1.60933e-06
-2.66687e-07
-1.7504e-06
-2.90202e-07
-1.91687e-06
-3.27793e-07
-2.13462e-06
-3.79307e-07
-2.44078e-06
-4.37803e-07
-2.87791e-06
-4.87952e-07
-3.47633e-06
-5.0373e-07
-4.22942e-06
-4.48353e-07
-5.0569e-06
-2.88432e-07
-5.56402e-06
-5.10645e-06
8.35549e-09
1.5214e-06
-2.30466e-08
2.16336e-06
-5.93386e-08
2.39535e-06
-8.57463e-08
2.57053e-06
-9.5526e-08
2.74343e-06
-8.80862e-08
2.90788e-06
-6.89025e-08
3.03537e-06
-4.94766e-08
3.09122e-06
-3.25831e-08
3.07133e-06
-2.39616e-08
2.97276e-06
-2.25944e-08
2.80849e-06
-2.69125e-08
2.59863e-06
-3.51677e-08
2.35852e-06
-4.57835e-08
2.09934e-06
-5.73201e-08
1.82864e-06
-6.85958e-08
1.55126e-06
-7.86737e-08
1.27007e-06
-8.68723e-08
9.86959e-07
-9.26906e-08
7.03457e-07
-9.58064e-08
4.21431e-07
-9.60917e-08
1.43538e-07
-9.36528e-08
-1.26468e-07
-8.89282e-08
-3.83675e-07
-8.28125e-08
-6.22568e-07
-7.66202e-08
-8.38302e-07
-7.19287e-08
-1.02827e-06
-7.03276e-08
-1.19326e-06
-7.32041e-08
-1.33754e-06
-8.17164e-08
-1.46812e-06
-9.69863e-08
-1.59406e-06
-1.20478e-07
-1.72691e-06
-1.54325e-07
-1.88303e-06
-2.01073e-07
-2.08787e-06
-2.61563e-07
-2.38029e-06
-3.30439e-07
-2.80904e-06
-3.93455e-07
-3.41332e-06
-4.26e-07
-4.19688e-06
-3.94085e-07
-5.08882e-06
-2.5936e-07
-5.69874e-06
-5.36581e-06
3.47869e-08
1.48661e-06
3.13965e-08
2.16675e-06
2.00724e-08
2.40668e-06
1.72349e-08
2.57336e-06
3.01973e-08
2.73046e-06
5.99709e-08
2.87811e-06
1.01305e-07
2.99403e-06
1.42943e-07
3.04958e-06
1.79981e-07
3.0343e-06
2.06336e-07
2.94641e-06
2.22139e-07
2.79269e-06
2.2908e-07
2.59169e-06
2.29462e-07
2.35814e-06
2.25432e-07
2.10337e-06
2.18768e-07
1.83531e-06
2.1085e-07
1.55917e-06
2.02666e-07
1.27826e-06
1.9487e-07
9.94754e-07
1.8782e-07
7.10507e-07
1.81618e-07
4.27633e-07
1.7614e-07
1.49016e-07
1.71052e-07
-1.21379e-07
1.65806e-07
-3.78429e-07
1.59624e-07
-6.16386e-07
1.51594e-07
-8.30272e-07
1.40768e-07
-1.01745e-06
1.26274e-07
-1.17877e-06
1.07376e-07
-1.31864e-06
8.34269e-08
-1.44417e-06
5.36852e-08
-1.56432e-06
1.69791e-08
-1.69021e-06
-2.86619e-08
-1.83738e-06
-8.59455e-08
-2.03059e-06
-1.5655e-07
-2.30968e-06
-2.36599e-07
-2.72899e-06
-3.12761e-07
-3.33715e-06
-3.61529e-07
-4.14811e-06
-3.49865e-07
-5.10048e-06
-2.35338e-07
-5.81327e-06
-5.60115e-06
5.9496e-08
1.42712e-06
8.12121e-08
2.14503e-06
9.2772e-08
2.39512e-06
1.11089e-07
2.55505e-06
1.44325e-07
2.69723e-06
1.93948e-07
2.82848e-06
2.55255e-07
2.93273e-06
3.18221e-07
2.98662e-06
3.75419e-07
2.9771e-06
4.21504e-07
2.90032e-06
4.54286e-07
2.7599e-06
4.75303e-07
2.57067e-06
4.87019e-07
2.34642e-06
4.91873e-07
2.09851e-06
4.91946e-07
1.83523e-06
4.88841e-07
1.56228e-06
4.8366e-07
1.28344e-06
4.77041e-07
1.00137e-06
4.69229e-07
7.1832e-07
4.60122e-07
4.3674e-07
4.49345e-07
1.59793e-07
4.36338e-07
-1.08373e-07
4.20457e-07
-3.62548e-07
4.01056e-07
-5.96985e-07
3.77676e-07
-8.06892e-07
3.50086e-07
-9.89857e-07
3.18245e-07
-1.14693e-06
2.82179e-07
-1.28258e-06
2.41798e-07
-1.40379e-06
1.967e-07
-1.51922e-06
1.45928e-07
-1.63943e-06
8.76061e-08
-1.77906e-06
1.89076e-08
-1.96189e-06
-6.25397e-08
-2.22824e-06
-1.54246e-07
-2.63728e-06
-2.43727e-07
-3.24767e-06
-3.08418e-07
-4.08342e-06
-3.16476e-07
-5.09242e-06
-2.18093e-07
-5.91165e-06
-5.81924e-06
8.12526e-08
1.34586e-06
1.25598e-07
2.10069e-06
1.57741e-07
2.36297e-06
1.94825e-07
2.51796e-06
2.45533e-07
2.64652e-06
3.12127e-07
2.76189e-06
3.90895e-07
2.85396e-06
4.73182e-07
2.90433e-06
5.5071e-07
2.89957e-06
6.17373e-07
2.83366e-06
6.69259e-07
2.70802e-06
7.06856e-07
2.53307e-06
7.32369e-07
2.32091e-06
7.4835e-07
2.08253e-06
7.57061e-07
1.82652e-06
7.60263e-07
1.55908e-06
7.59154e-07
1.28455e-06
7.54391e-07
1.00614e-06
7.46144e-07
7.26567e-07
7.3416e-07
4.48724e-07
7.17868e-07
1.76086e-07
6.96524e-07
-8.70291e-08
6.69498e-07
-3.35522e-07
6.36338e-07
-5.63825e-07
5.97084e-07
-7.67638e-07
5.52254e-07
-9.45027e-07
5.02651e-07
-1.09732e-06
4.49059e-07
-1.22898e-06
3.91962e-07
-1.34669e-06
3.31298e-07
-1.45856e-06
2.66239e-07
-1.57437e-06
1.94951e-07
-1.70777e-06
1.14497e-07
-1.88144e-06
2.18596e-08
-2.1356e-06
-8.16743e-08
-2.53375e-06
-1.84286e-07
-3.14506e-06
-2.63689e-07
-4.00402e-06
-2.90309e-07
-5.0658e-06
-2.04809e-07
-5.99715e-06
-6.02405e-06
9.84103e-08
1.24745e-06
1.6319e-07
2.03591e-06
2.13765e-07
2.3124e-06
2.6721e-07
2.46452e-06
3.32736e-07
2.58099e-06
4.13442e-07
2.68118e-06
5.06853e-07
2.76055e-06
6.05849e-07
2.80534e-06
7.02277e-07
2.80314e-06
7.88976e-07
2.74696e-06
8.61027e-07
2.63597e-06
9.173e-07
2.4768e-06
9.58974e-07
2.27924e-06
9.88279e-07
2.05323e-06
1.0075e-06
1.8073e-06
1.01848e-06
1.54809e-06
1.0225e-06
1.28053e-06
1.02025e-06
1.00839e-06
1.01184e-06
7.34968e-07
9.96955e-07
4.63614e-07
9.74924e-07
1.98116e-07
9.44882e-07
-5.69871e-08
9.0648e-07
-2.9712e-07
8.59517e-07
-5.16862e-07
8.04602e-07
-7.12723e-07
7.42972e-07
-8.83396e-07
6.76175e-07
-1.03053e-06
6.05658e-07
-1.15847e-06
5.32395e-07
-1.27343e-06
4.5663e-07
-1.38279e-06
3.77666e-07
-1.49541e-06
2.93662e-07
-1.62377e-06
2.01554e-07
-1.78933e-06
9.78228e-08
-2.03187e-06
-1.74827e-08
-2.41844e-06
-1.33157e-07
-3.02939e-06
-2.26518e-07
-3.91066e-06
-2.68963e-07
-5.02336e-06
-1.9655e-07
-6.06957e-06
-6.2206e-06
1.10398e-07
1.13706e-06
1.92935e-07
1.95337e-06
2.59848e-07
2.24548e-06
3.27473e-07
2.39689e-06
4.05382e-07
2.50308e-06
4.97469e-07
2.58909e-06
6.02527e-07
2.65549e-06
7.14986e-07
2.69288e-06
8.27291e-07
2.69084e-06
9.32175e-07
2.64208e-06
1.02385e-06
2.54429e-06
1.09957e-06
2.40109e-06
1.15908e-06
2.21972e-06
1.20368e-06
2.00863e-06
1.23522e-06
1.77576e-06
1.25546e-06
1.52785e-06
1.26569e-06
1.2703e-06
1.26661e-06
1.00748e-06
1.25837e-06
7.43211e-07
1.24064e-06
4.81344e-07
1.21286e-06
2.25892e-07
1.17413e-06
-1.82601e-08
1.12469e-06
-2.4768e-07
1.06462e-06
-4.56788e-07
9.95141e-07
-6.43246e-07
9.18111e-07
-8.06367e-07
8.35657e-07
-9.48071e-07
7.49715e-07
-1.07252e-06
6.61644e-07
-1.18536e-06
5.71941e-07
-1.29309e-06
4.80021e-07
-1.40349e-06
3.8405e-07
-1.5278e-06
2.80889e-07
-1.68617e-06
1.66589e-07
-1.91757e-06
4.01107e-08
-2.29196e-06
-8.84438e-08
-2.90083e-06
-1.95781e-07
-3.80332e-06
-2.52209e-07
-4.96693e-06
-1.92351e-07
-6.12942e-06
-6.41296e-06
1.16808e-07
1.02025e-06
2.14131e-07
1.85605e-06
2.95249e-07
2.16437e-06
3.75092e-07
2.31705e-06
4.63228e-07
2.41495e-06
5.64192e-07
2.48813e-06
6.7791e-07
2.54177e-06
8.00297e-07
2.57049e-06
9.2488e-07
2.56626e-06
1.0448e-06
2.52216e-06
1.15382e-06
2.43527e-06
1.24785e-06
2.30706e-06
1.32521e-06
2.14236e-06
1.38597e-06
1.94787e-06
1.43111e-06
1.73062e-06
1.4619e-06
1.49706e-06
1.47941e-06
1.25278e-06
1.48431e-06
1.00258e-06
1.4768e-06
7.50723e-07
1.45669e-06
5.01456e-07
1.42351e-06
2.5907e-07
1.37736e-06
2.78874e-08
1.31789e-06
-1.88206e-07
1.24634e-06
-3.85242e-07
1.16438e-06
-5.6128e-07
1.0743e-06
-7.16287e-07
9.78594e-07
-8.52368e-07
8.79512e-07
-9.73442e-07
7.78671e-07
-1.08452e-06
6.76746e-07
-1.19117e-06
5.73265e-07
-1.30001e-06
4.66506e-07
-1.42104e-06
3.53252e-07
-1.57291e-06
2.2918e-07
-1.7935e-06
9.22391e-08
-2.15502e-06
-4.86668e-08
-2.75993e-06
-1.69394e-07
-3.68259e-06
-2.37682e-07
-4.89864e-06
-1.91345e-07
-6.17576e-06
-6.6043e-06
1.17472e-07
9.02775e-07
2.26282e-07
1.74724e-06
3.19499e-07
2.07115e-06
4.09817e-07
2.22673e-06
5.06344e-07
2.31842e-06
6.14043e-07
2.38043e-06
7.33772e-07
2.42204e-06
8.62839e-07
2.44142e-06
9.96113e-07
2.43298e-06
1.12708e-06
2.39119e-06
1.24968e-06
2.31267e-06
1.35918e-06
2.19756e-06
1.45262e-06
2.04893e-06
1.52873e-06
1.87176e-06
1.58745e-06
1.6719e-06
1.62929e-06
1.45523e-06
1.65486e-06
1.22721e-06
1.66463e-06
9.92803e-07
1.65884e-06
7.56515e-07
1.63751e-06
5.22788e-07
1.60056e-06
2.9602e-07
1.54825e-06
8.01955e-08
1.48115e-06
-1.21108e-07
1.40084e-06
-3.04923e-07
1.3094e-06
-4.69845e-07
1.20942e-06
-6.16307e-07
1.10357e-06
-7.46515e-07
9.94237e-07
-8.64111e-07
8.83136e-07
-9.73419e-07
7.71043e-07
-1.07907e-06
6.57721e-07
-1.18669e-06
5.41628e-07
-1.30495e-06
4.1949e-07
-1.45077e-06
2.86608e-07
-1.66061e-06
1.39971e-07
-2.00839e-06
-1.26618e-08
-2.60729e-06
-1.46573e-07
-3.54868e-06
-2.25962e-07
-4.81925e-06
-1.91352e-07
-6.21037e-06
-6.79565e-06
1.12647e-07
7.90129e-07
2.29252e-07
1.63063e-06
3.32412e-07
1.96799e-06
4.31621e-07
2.12752e-06
5.351e-07
2.21494e-06
6.47918e-07
2.26761e-06
7.71623e-07
2.29834e-06
9.04639e-07
2.30841e-06
1.04303e-06
2.29459e-06
1.18114e-06
2.25308e-06
1.31318e-06
2.18063e-06
1.43419e-06
2.07655e-06
1.54046e-06
1.94266e-06
1.62966e-06
1.78256e-06
1.70061e-06
1.60095e-06
1.75295e-06
1.40289e-06
1.78672e-06
1.19344e-06
1.80208e-06
9.77446e-07
1.79918e-06
7.59412e-07
1.77825e-06
5.43717e-07
1.73961e-06
3.34659e-07
1.68387e-06
1.35935e-07
1.6122e-06
-4.944e-08
1.52656e-06
-2.19275e-07
1.42927e-06
-3.72563e-07
1.32304e-06
-5.1007e-07
1.21055e-06
-6.34025e-07
1.09411e-06
-7.47676e-07
9.75393e-07
-8.547e-07
8.55395e-07
-9.59077e-07
7.3418e-07
-1.06547e-06
6.1037e-07
-1.18114e-06
4.80756e-07
-1.32116e-06
3.40342e-07
-1.5202e-06
1.85032e-07
-1.85308e-06
2.12596e-08
-2.44352e-06
-1.25606e-07
-3.40182e-06
-2.15273e-07
-4.72959e-06
-1.93698e-07
-6.23195e-06
-6.98935e-06
1.03066e-07
6.87063e-07
2.23406e-07
1.5103e-06
3.34109e-07
1.85729e-06
4.40697e-07
2.02093e-06
5.50042e-07
2.1056e-06
6.66886e-07
2.15077e-06
7.93182e-07
2.17204e-06
9.28129e-07
2.17346e-06
1.06872e-06
2.154e-06
1.21056e-06
2.11125e-06
1.34821e-06
2.04298e-06
1.4767e-06
1.94806e-06
1.59196e-06
1.82739e-06
1.691e-06
1.68353e-06
1.77181e-06
1.52014e-06
1.83322e-06
1.34147e-06
1.87466e-06
1.152e-06
1.89592e-06
9.56181e-07
1.89705e-06
7.58285e-07
1.87835e-06
5.62415e-07
1.8405e-06
3.72515e-07
1.78447e-06
1.91963e-07
1.71178e-06
2.32472e-08
1.62451e-06
-1.32002e-07
1.5252e-06
-2.73259e-07
1.41649e-06
-4.01359e-07
1.30082e-06
-5.18352e-07
1.1803e-06
-6.27154e-07
1.05668e-06
-7.31085e-07
9.31137e-07
-8.33532e-07
8.03911e-07
-9.38247e-07
6.73927e-07
-1.05115e-06
5.38228e-07
-1.18546e-06
3.91693e-07
-1.37367e-06
2.29125e-07
-1.69051e-06
5.52219e-08
-2.26962e-06
-1.04696e-07
-3.2419e-06
-2.05417e-07
-4.62887e-06
-1.96557e-07
-6.24081e-06
-7.18591e-06
8.98201e-08
5.97243e-07
2.09535e-07
1.39058e-06
3.25054e-07
1.74177e-06
4.37462e-07
1.90852e-06
5.51796e-07
1.99126e-06
6.72024e-07
2.03054e-06
8.00142e-07
2.04393e-06
9.35868e-07
2.03773e-06
1.07693e-06
2.01294e-06
1.2198e-06
1.96838e-06
1.35989e-06
1.90288e-06
1.49241e-06
1.81554e-06
1.61315e-06
1.70665e-06
1.71873e-06
1.57795e-06
1.80665e-06
1.43222e-06
1.8752e-06
1.27293e-06
1.92329e-06
1.10391e-06
1.95041e-06
9.2907e-07
1.95643e-06
7.52259e-07
1.94169e-06
5.77162e-07
1.90702e-06
4.07181e-07
1.85371e-06
2.45277e-07
1.78337e-06
9.3578e-08
1.69809e-06
-4.67186e-08
1.60033e-06
-1.75494e-07
1.4925e-06
-2.93528e-07
1.37676e-06
-4.02616e-07
1.25511e-06
-5.05505e-07
1.12922e-06
-6.05193e-07
1.00024e-06
-7.04557e-07
8.68664e-07
-8.06666e-07
7.33836e-07
-9.16325e-07
5.9325e-07
-1.04487e-06
4.41907e-07
-1.22232e-06
2.73535e-07
-1.52214e-06
9.05544e-08
-2.08664e-06
-8.22364e-08
-3.06911e-06
-1.95792e-07
-4.51531e-06
-2.00013e-07
-6.23658e-06
-7.38592e-06
7.41056e-08
5.23137e-07
1.88717e-07
1.27597e-06
3.05982e-07
1.6245e-06
4.22521e-07
1.79199e-06
5.4108e-07
1.87271e-06
6.64427e-07
1.90719e-06
7.94212e-07
1.91414e-06
9.30363e-07
1.90158e-06
1.07112e-06
1.87218e-06
1.21347e-06
1.82603e-06
1.35374e-06
1.76261e-06
1.48767e-06
1.6816e-06
1.61113e-06
1.5832e-06
1.72057e-06
1.46851e-06
1.81318e-06
1.33961e-06
1.88696e-06
1.19914e-06
1.94057e-06
1.0503e-06
1.97322e-06
8.96417e-07
1.9847e-06
7.40777e-07
1.97528e-06
5.86588e-07
1.94584e-06
4.36621e-07
1.89773e-06
2.9338e-07
1.83261e-06
1.58699e-07
1.75236e-06
3.3535e-08
1.65909e-06
-8.22219e-08
1.55497e-06
-1.89408e-07
1.44197e-06
-2.89619e-07
1.3218e-06
-3.85334e-07
1.19587e-06
-4.79264e-07
1.06529e-06
-5.73977e-07
9.30744e-07
-6.72119e-07
7.92101e-07
-7.77682e-07
6.47561e-07
-9.00334e-07
4.926e-07
-1.06736e-06