/*--------------------------------*- C++ -*----------------------------------*\
  =========                 |
  \\      /  F ield         | OpenFOAM: The Open Source CFD Toolbox
   \\    /   O peration     | Website:  https://openfoam.org
    \\  /    A nd           | Version:  12
     \\/     M anipulation  |
\*---------------------------------------------------------------------------*/
FoamFile
{
    format      ascii;
    class       volVectorField;
    location    "2.5";
    object      U;
}
// * * * * * * * * * * * * * * * * * * * * * * * * * * * * * * * * * * * * * //

dimensions      [0 1 -1 0 0 0 0];

internalField   nonuniform List<vector> 
1600
(
(0.000839725 -0.000813456 0)
(0.00321102 -0.00102147 0)
(0.00529577 -0.000919691 0)
(0.00688005 -0.000740229 0)
(0.00803621 -0.000644065 0)
(0.00890749 -0.000587125 0)
(0.00951625 -0.000495858 0)
(0.00971904 -0.000305298 0)
(0.00930647 -0.000136715 0)
(0.00814973 -4.69163e-06 0)
(0.006229 -6.8216e-05 0)
(0.00354767 -0.00044206 0)
(-0.000981286 -0.000510496 0)
(-0.0079969 0.000496022 0)
(-0.0167769 0.00357622 0)
(-0.0316173 0.00783354 0)
(-0.0494646 0.00951874 0)
(-0.0660306 0.00910997 0)
(-0.0804311 0.00817154 0)
(-0.0925858 0.00694708 0)
(-0.102381 0.00565831 0)
(-0.109912 0.00435471 0)
(-0.115189 0.00305478 0)
(-0.117846 0.00188629 0)
(-0.118692 0.000639977 0)
(-0.116905 -0.00123879 0)
(-0.112421 -0.00259048 0)
(-0.105293 -0.00439973 0)
(-0.0951151 -0.00593245 0)
(-0.0823455 -0.00779826 0)
(-0.066713 -0.00944289 0)
(-0.0488252 -0.0106851 0)
(-0.0294809 -0.0110685 0)
(-0.00950316 -0.0101486 0)
(0.00735005 -0.00826937 0)
(0.0193497 -0.0030418 0)
(0.0212872 0.00234996 0)
(0.0170075 0.00375091 0)
(0.00796758 0.00297373 0)
(0.0016627 0.00197327 0)
(0.0010758 -0.00331482 0)
(0.00385524 -0.00386313 0)
(0.00548279 -0.00292012 0)
(0.0062687 -0.00205006 0)
(0.00646116 -0.00148486 0)
(0.00614031 -0.00105053 0)
(0.00517472 -0.000476784 0)
(0.00323147 0.000416957 0)
(-9.2631e-05 0.0016152 0)
(-0.0054252 0.00312898 0)
(-0.0137527 0.00521062 0)
(-0.0265548 0.00849776 0)
(-0.0442502 0.013257 0)
(-0.0649903 0.0191314 0)
(-0.0841424 0.0239236 0)
(-0.100025 0.0251925 0)
(-0.114432 0.0240342 0)
(-0.126338 0.0215234 0)
(-0.136274 0.0184105 0)
(-0.144141 0.0150456 0)
(-0.150082 0.0116553 0)
(-0.154132 0.0082771 0)
(-0.156317 0.00492695 0)
(-0.156642 0.00156999 0)
(-0.155169 -0.00196208 0)
(-0.15161 -0.00574161 0)
(-0.146008 -0.00965255 0)
(-0.13815 -0.0138228 0)
(-0.127785 -0.0181151 0)
(-0.114663 -0.0224804 0)
(-0.0990483 -0.0266641 0)
(-0.0809318 -0.0299176 0)
(-0.0607266 -0.0312571 0)
(-0.0396233 -0.0296049 0)
(-0.0188391 -0.0238677 0)
(-0.000528763 -0.0122672 0)
(0.0118713 0.00140985 0)
(0.0128078 0.00862757 0)
(0.00779827 0.0103647 0)
(0.00138858 0.00727658 0)
(0.000993286 -0.00557854 0)
(0.00235566 -0.00537734 0)
(0.0023331 -0.00336607 0)
(0.00153544 -0.0017086 0)
(1.17394e-05 -0.000495498 0)
(-0.00247161 0.000752538 0)
(-0.00637532 0.00254657 0)
(-0.0123712 0.00531408 0)
(-0.0212701 0.00942043 0)
(-0.0339329 0.0151309 0)
(-0.0503989 0.0221152 0)
(-0.0687658 0.0289011 0)
(-0.0874711 0.0341232 0)
(-0.104558 0.0371703 0)
(-0.118794 0.0380159 0)
(-0.130462 0.0366375 0)
(-0.140033 0.0336121 0)
(-0.147686 0.0295194 0)
(-0.153868 0.0249079 0)
(-0.158588 0.0200865 0)
(-0.162007 0.0152466 0)
(-0.164143 0.0104228 0)
(-0.165052 0.00554158 0)
(-0.16464 0.000672503 0)
(-0.162881 -0.00439817 0)
(-0.159816 -0.0096944 0)
(-0.155312 -0.0153925 0)
(-0.14923 -0.0216335 0)
(-0.141392 -0.0283106 0)
(-0.131487 -0.0352494 0)
(-0.119144 -0.0419345 0)
(-0.104392 -0.0476956 0)
(-0.0869272 -0.051041 0)
(-0.0676592 -0.0507233 0)
(-0.0468087 -0.044254 0)
(-0.0250811 -0.0294815 0)
(-0.00485685 -0.00760381 0)
(0.00363176 0.00815726 0)
(0.00307392 0.0135276 0)
(0.000556185 0.0105629 0)
(0.000581507 -0.0065975 0)
(-2.09147e-06 -0.00502116 0)
(-0.00187543 -0.0020035 0)
(-0.00447796 0.000422825 0)
(-0.00813403 0.00265969 0)
(-0.0133551 0.00549799 0)
(-0.0208396 0.00966569 0)
(-0.031258 0.0155939 0)
(-0.0449113 0.0232681 0)
(-0.0612516 0.0318413 0)
(-0.0788731 0.0398415 0)
(-0.0961648 0.046076 0)
(-0.111556 0.0494881 0)
(-0.124029 0.0501022 0)
(-0.133884 0.0485508 0)
(-0.141755 0.0451935 0)
(-0.148013 0.0406433 0)
(-0.152915 0.0353543 0)
(-0.156659 0.0297058 0)
(-0.159691 0.0236388 0)
(-0.161892 0.0176081 0)
(-0.163208 0.0115885 0)
(-0.163571 0.00564851 0)
(-0.16299 -0.000416909 0)
(-0.161459 -0.00664018 0)
(-0.158994 -0.0131115 0)
(-0.155521 -0.0199898 0)
(-0.150966 -0.0273838 0)
(-0.14522 -0.0354649 0)
(-0.138193 -0.0442687 0)
(-0.129692 -0.0535007 0)
(-0.119494 -0.06248 0)
(-0.106893 -0.0694159 0)
(-0.0908264 -0.0716611 0)
(-0.0718452 -0.0671155 0)
(-0.0493141 -0.052206 0)
(-0.0229551 -0.0245538 0)
(-0.00461049 0.00184127 0)
(-0.000254537 0.012814 0)
(0.000205361 0.0113776 0)
(-0.00025471 -0.00611543 0)
(-0.0028152 -0.00275533 0)
(-0.00648819 0.00123536 0)
(-0.0110349 0.00468017 0)
(-0.0170414 0.00845778 0)
(-0.0250533 0.0135533 0)
(-0.0356476 0.020565 0)
(-0.0490482 0.0294737 0)
(-0.0646468 0.0393505 0)
(-0.0810999 0.0486565 0)
(-0.0971445 0.0559877 0)
(-0.111147 0.0601996 0)
(-0.12234 0.0611509 0)
(-0.131154 0.0595342 0)
(-0.137991 0.0560322 0)
(-0.143341 0.0511296 0)
(-0.14747 0.0453339 0)
(-0.150781 0.0388847 0)
(-0.153356 0.0321477 0)
(-0.155041 0.0254755 0)
(-0.155853 0.0187516 0)
(-0.155951 0.0120234 0)
(-0.155465 0.00529632 0)
(-0.154457 -0.0015012 0)
(-0.152964 -0.00844077 0)
(-0.150873 -0.015693 0)
(-0.148256 -0.0234211 0)
(-0.145058 -0.0317702 0)
(-0.141224 -0.0408292 0)
(-0.136621 -0.05058 0)
(-0.131031 -0.0608168 0)
(-0.124124 -0.0711583 0)
(-0.115693 -0.0810267 0)
(-0.104888 -0.0880172 0)
(-0.0898378 -0.0879367 0)
(-0.069979 -0.0774287 0)
(-0.0437769 -0.0517284 0)
(-0.0131734 -0.0121133 0)
(-0.00136138 0.00880754 0)
(0.000618048 0.0112629 0)
(-0.00123519 -0.00382716 0)
(-0.00565519 0.00147149 0)
(-0.0109874 0.0064288 0)
(-0.0174333 0.011096 0)
(-0.025554 0.016709 0)
(-0.0357289 0.0241691 0)
(-0.0482852 0.0337029 0)
(-0.0628156 0.04455 0)
(-0.078167 0.0550932 0)
(-0.0931467 0.0638049 0)
(-0.106266 0.0692556 0)
(-0.116642 0.0709076 0)
(-0.124714 0.069595 0)
(-0.130986 0.0661619 0)
(-0.135741 0.0611469 0)
(-0.139324 0.0550368 0)
(-0.141951 0.0482099 0)
(-0.143659 0.0410414 0)
(-0.144637 0.0336492 0)
(-0.144919 0.0262273 0)
(-0.144731 0.0188482 0)
(-0.144118 0.0115875 0)
(-0.143095 0.00440928 0)
(-0.141729 -0.00277147 0)
(-0.140045 -0.0100604 0)
(-0.138081 -0.0176374 0)
(-0.135912 -0.0256723 0)
(-0.133563 -0.0343579 0)
(-0.13104 -0.0438608 0)
(-0.128278 -0.054272 0)
(-0.12512 -0.0655122 0)
(-0.121287 -0.0772072 0)
(-0.116299 -0.0885124 0)
(-0.109301 -0.0980585 0)
(-0.0992472 -0.103667 0)
(-0.0837943 -0.0996399 0)
(-0.0615725 -0.0808903 0)
(-0.0292905 -0.0411546 0)
(-0.00393738 -0.00121804 0)
(0.00112371 0.010717 0)
(-0.00210658 0.000228398 0)
(-0.0081906 0.00746449 0)
(-0.0149635 0.0133436 0)
(-0.0229697 0.0193097 0)
(-0.0326196 0.0267305 0)
(-0.0441279 0.0362722 0)
(-0.0573981 0.0475933 0)
(-0.0715676 0.0591471 0)
(-0.0855911 0.0693051 0)
(-0.0981621 0.0763942 0)
(-0.108195 0.0793677 0)
(-0.115825 0.0787924 0)
(-0.121677 0.0757009 0)
(-0.126058 0.0707882 0)
(-0.129187 0.0645575 0)
(-0.131311 0.0574481 0)
(-0.132597 0.0497865 0)
(-0.133182 0.0418602 0)
(-0.133213 0.0338491 0)
(-0.132768 0.0259237 0)
(-0.131934 0.0181434 0)
(-0.130754 0.0105256 0)
(-0.129276 0.00303922 0)
(-0.127565 -0.00438491 0)
(-0.12568 -0.0118518 0)
(-0.123699 -0.019523 0)
(-0.121713 -0.027578 0)
(-0.119796 -0.0362257 0)
(-0.118004 -0.0456735 0)
(-0.116337 -0.0560901 0)
(-0.114708 -0.0675415 0)
(-0.112892 -0.0799055 0)
(-0.110473 -0.0926653 0)
(-0.10672 -0.104607 0)
(-0.100403 -0.113605 0)
(-0.0898778 -0.116257 0)
(-0.0729768 -0.106205 0)
(-0.047041 -0.0754397 0)
(-0.0106569 -0.0183031 0)
(0.00187489 0.00927099 0)
(-0.00289424 0.0058146 0)
(-0.0102376 0.0148469 0)
(-0.0180646 0.0215913 0)
(-0.027125 0.0287678 0)
(-0.037674 0.0377471 0)
(-0.0496435 0.0488712 0)
(-0.0625565 0.0610046 0)
(-0.0755955 0.0724216 0)
(-0.0877006 0.0813671 0)
(-0.0977044 0.0862582 0)
(-0.105279 0.086982 0)
(-0.110951 0.0845905 0)
(-0.11519 0.0800343 0)
(-0.118178 0.0738747 0)
(-0.120127 0.0666078 0)
(-0.121248 0.0586432 0)
(-0.121694 0.050289 0)
(-0.121598 0.0417968 0)
(-0.121061 0.0333337 0)
(-0.120145 0.0250259 0)
(-0.1189 0.0169179 0)
(-0.117365 0.00901966 0)
(-0.115592 0.00130796 0)
(-0.113643 -0.0062744 0)
(-0.111592 -0.0138226 0)
(-0.109535 -0.0214776 0)
(-0.107579 -0.0294173 0)
(-0.105834 -0.0378591 0)
(-0.104396 -0.0470443 0)
(-0.103316 -0.0572075 0)
(-0.102566 -0.0685138 0)
(-0.101994 -0.0809709 0)
(-0.101235 -0.0943096 0)
(-0.0996139 -0.107741 0)
(-0.0960499 -0.119634 0)
(-0.0890509 -0.127003 0)
(-0.0770955 -0.12479 0)
(-0.0573081 -0.104772 0)
(-0.0235716 -0.0503231 0)
(0.000922913 0.00253331 0)
(-0.00347001 0.0124535 0)
(-0.0116451 0.0232094 0)
(-0.0200893 0.0306987 0)
(-0.0296807 0.0388695 0)
(-0.040509 0.0490697 0)
(-0.0521739 0.0610789 0)
(-0.0641363 0.0732923 0)
(-0.0756184 0.0839741 0)
(-0.0856653 0.0911848 0)
(-0.0934846 0.0939232 0)
(-0.0992504 0.0927524 0)
(-0.10353 0.0888732 0)
(-0.106603 0.0830772 0)
(-0.108624 0.0758719 0)
(-0.109804 0.0677541 0)
(-0.110319 0.0591056 0)
(-0.1103 0.0502072 0)
(-0.109848 0.0412715 0)
(-0.10903 0.0324386 0)
(-0.107888 0.0238028 0)
(-0.10645 0.0154055 0)
(-0.104747 0.00726132 0)
(-0.102823 -0.000641572 0)
(-0.100736 -0.00834584 0)
(-0.0985623 -0.0159294 0)
(-0.0964023 -0.023512 0)
(-0.0943759 -0.0312594 0)
(-0.0926152 -0.0393883 0)
(-0.0912491 -0.0481613 0)
(-0.090376 -0.0578691 0)
(-0.0900267 -0.0687875 0)
(-0.0901156 -0.081086 0)
(-0.0903798 -0.0947075 0)
(-0.0902319 -0.109163 0)
(-0.0886627 -0.123165 0)
(-0.0842132 -0.134209 0)
(-0.0756938 -0.137534 0)
(-0.060952 -0.127043 0)
(-0.0364839 -0.0870688 0)
(-0.00345556 -0.0102253 0)
(-0.00377305 0.0197419 0)
(-0.0123566 0.0321158 0)
(-0.0209909 0.0401802 0)
(-0.0306585 0.0490876 0)
(-0.0411995 0.0600781 0)
(-0.0520493 0.0723413 0)
(-0.0627241 0.0841833 0)
(-0.072554 0.0936871 0)
(-0.0806965 0.0990703 0)
(-0.086813 0.0999051 0)
(-0.091283 0.0971871 0)
(-0.0945667 0.0920755 0)
(-0.0968345 0.0852371 0)
(-0.0982417 0.0771785 0)
(-0.0989819 0.0683806 0)
(-0.0991955 0.0591905 0)
(-0.0989834 0.0498554 0)
(-0.0984154 0.0405524 0)
(-0.0975296 0.0313965 0)
(-0.0963446 0.0224625 0)
(-0.0948754 0.0137917 0)
(-0.093143 0.00540623 0)
(-0.0911807 -0.00269163 0)
(-0.0890409 -0.0105254 0)
(-0.0867976 -0.0181506 0)
(-0.08455 -0.0256632 0)
(-0.0824213 -0.0332094 0)
(-0.0805534 -0.0409958 0)
(-0.0790948 -0.049294 0)
(-0.0781788 -0.058434 0)
(-0.0778863 -0.0687734 0)
(-0.0781945 -0.0806288 0)
(-0.0789248 -0.0941515 0)
(-0.0796421 -0.109185 0)
(-0.0794362 -0.12487 0)
(-0.0768219 -0.1391 0)
(-0.0709544 -0.146739 0)
(-0.0597707 -0.14336 0)
(-0.0418103 -0.114915 0)
(-0.0105165 -0.027308 0)
(-0.00380461 0.027266 0)
(-0.0123893 0.0411473 0)
(-0.0208578 0.0496081 0)
(-0.0301966 0.0589829 0)
(-0.0400264 0.0702962 0)
(-0.0497716 0.0824104 0)
(-0.0590228 0.0935575 0)
(-0.0672362 0.101704 0)
(-0.0737877 0.105383 0)
(-0.0786069 0.104629 0)
(-0.0821487 0.100663 0)
(-0.0847295 0.0945301 0)
(-0.0864742 0.086838 0)
(-0.0875354 0.078097 0)
(-0.0880759 0.0687602 0)
(-0.088201 0.0591389 0)
(-0.0879801 0.049446 0)
(-0.087453 0.0398261 0)
(-0.086634 0.0303731 0)
(-0.0855266 0.0211517 0)
(-0.0841337 0.0122048 0)
(-0.0824653 0.00356503 0)
(-0.0805465 -0.00474805 0)
(-0.0784237 -0.0127371 0)
(-0.076168 -0.020433 0)
(-0.0738759 -0.0279063 0)
(-0.0716687 -0.0352805 0)
(-0.0696884 -0.0427458 0)
(-0.0680906 -0.0505718 0)
(-0.0670277 -0.0591135 0)
(-0.0666178 -0.0687967 0)
(-0.0668936 -0.0800639 0)
(-0.0677425 -0.0932593 0)
(-0.0688538 -0.10847 0)
(-0.0694861 -0.125281 0)
(-0.0682768 -0.142136 0)
(-0.0637775 -0.154047 0)
(-0.0553798 -0.156317 0)
(-0.0397074 -0.137665 0)
(-0.0146569 -0.0634758 0)
(-0.00359581 0.0346247 0)
(-0.0118295 0.0499289 0)
(-0.0198413 0.0586353 0)
(-0.0285227 0.0681926 0)
(-0.0373766 0.0794608 0)
(-0.045856 0.0911591 0)
(-0.0536813 0.101427 0)
(-0.0604329 0.108251 0)
(-0.0656122 0.110425 0)
(-0.0694871 0.108419 0)
(-0.0723447 0.103449 0)
(-0.07444 0.0964859 0)
(-0.0758683 0.0881131 0)
(-0.0767676 0.0788372 0)
(-0.0772644 0.0690775 0)
(-0.0774304 0.0591095 0)
(-0.077307 0.0491131 0)
(-0.0769103 0.0392063 0)
(-0.0762377 0.0294682 0)
(-0.0752789 0.0199586 0)
(-0.0740254 0.0107256 0)
(-0.0724802 0.00181223 0)
(-0.0706617 -0.00674229 0)
(-0.0686118 -0.0149164 0)
(-0.0663999 -0.0227156 0)
(-0.0641204 -0.0301857 0)
(-0.0618904 -0.0374277 0)
(-0.0598465 -0.0446137 0)
(-0.0581398 -0.0520039 0)
(-0.0569273 -0.0599631 0)
(-0.0563492 -0.0689646 0)
(-0.0564828 -0.0795576 0)
(-0.0572767 -0.0922666 0)
(-0.0584931 -0.107407 0)
(-0.0595866 -0.124897 0)
(-0.0594008 -0.143706 0)
(-0.0559293 -0.160029 0)
(-0.0498191 -0.166152 0)
(-0.0362169 -0.155998 0)
(-0.0129647 -0.0917416 0)
(-0.00320917 0.0414892 0)
(-0.0108021 0.058142 0)
(-0.0181213 0.0669587 0)
(-0.0259104 0.0764599 0)
(-0.0336321 0.0874368 0)
(-0.0407878 0.0985463 0)
(-0.0472635 0.107918 0)
(-0.0526251 0.113483 0)
(-0.0567304 0.114477 0)
(-0.0598484 0.111496 0)
(-0.062188 0.105738 0)
(-0.0639454 0.0981201 0)
(-0.0651913 0.089221 0)
(-0.0660385 0.0795339 0)
(-0.0665765 0.069442 0)
(-0.0668485 0.0591887 0)
(-0.0668731 0.0489265 0)
(-0.0666484 0.0387533 0)
(-0.0661587 0.0287366 0)
(-0.0653833 0.0189336 0)
(-0.0643041 0.00940081 0)
(-0.0629183 0.000195164 0)
(-0.0612413 -0.00862458 0)
(-0.0593113 -0.0170097 0)
(-0.0571969 -0.0249395 0)
(-0.0549919 -0.0324363 0)
(-0.0528102 -0.0395816 0)
(-0.0507806 -0.046532 0)
(-0.0490435 -0.0535367 0)
(-0.0477477 -0.0609595 0)
(-0.0470393 -0.0693005 0)
(-0.0470266 -0.0791911 0)
(-0.0477135 -0.0913157 0)
(-0.048919 -0.106222 0)
(-0.0502305 -0.12409 0)
(-0.0506586 -0.144282 0)
(-0.0483995 -0.164546 0)
(-0.043045 -0.175072 0)
(-0.0319164 -0.171584 0)
(-0.011456 -0.117401 0)
(-0.00265848 0.0475495 0)
(-0.00938925 0.0655445 0)
(-0.0158656 0.0743925 0)
(-0.0226271 0.0836743 0)
(-0.029139 0.0941813 0)
(-0.0349731 0.104605 0)
(-0.0401906 0.113136 0)
(-0.0442194 0.117545 0)
(-0.0474617 0.117706 0)
(-0.0499449 0.114005 0)
(-0.0518689 0.107655 0)
(-0.0533754 0.0995448 0)
(-0.0545109 0.090253 0)
(-0.0553557 0.0802549 0)
(-0.0559665 0.0699014 0)
(-0.0563631 0.0594101 0)
(-0.0565457 0.0489116 0)
(-0.0564994 0.0384879 0)
(-0.0561996 0.0281986 0)
(-0.0556189 0.0181 0)
(-0.0547325 0.00825733 0)
(-0.0535319 -0.00125427 0)
(-0.0520299 -0.0103552 0)
(-0.050263 -0.018969 0)
(-0.0482994 -0.027047 0)
(-0.0462333 -0.0345889 0)
(-0.0441767 -0.0416609 0)
(-0.0422513 -0.0484092 0)
(-0.0405843 -0.0550749 0)
(-0.0393088 -0.0620164 0)
(-0.0385632 -0.0697433 0)
(-0.0384703 -0.0789407 0)
(-0.0390782 -0.0904284 0)
(-0.0402682 -0.104985 0)
(-0.0416989 -0.123057 0)
(-0.0425408 -0.144401 0)
(-0.0414173 -0.16711 0)
(-0.0366805 -0.182866 0)
(-0.0279462 -0.184273 0)
(-0.00961771 -0.138535 0)
(-0.00203274 0.0526297 0)
(-0.00772855 0.0719624 0)
(-0.0132426 0.0808162 0)
(-0.018894 0.0897442 0)
(-0.0241714 0.0996565 0)
(-0.0287226 0.109363 0)
(-0.0327298 0.117132 0)
(-0.0355644 0.120617 0)
(-0.038034 0.120218 0)
(-0.0399459 0.116028 0)
(-0.0415016 0.109267 0)
(-0.0427922 0.100813 0)
(-0.0438379 0.0912435 0)
(-0.0446855 0.0810175 0)
(-0.0453622 0.070461 0)
(-0.0458686 0.0597709 0)
(-0.046191 0.0490618 0)
(-0.0463064 0.0384047 0)
(-0.0461845 0.0278533 0)
(-0.0457947 0.0174651 0)
(-0.0451094 0.00731297 0)
(-0.0441142 -0.00250911 0)
(-0.0428191 -0.011897 0)
(-0.0412599 -0.0207461 0)
(-0.0395035 -0.0289787 0)
(-0.0376447 -0.0365723 0)
(-0.035794 -0.0435808 0)
(-0.0340667 -0.0501467 0)
(-0.0325763 -0.0565085 0)
(-0.0314376 -0.0630201 0)
(-0.0307726 -0.0701894 0)
(-0.0307039 -0.0787294 0)
(-0.0313107 -0.0895624 0)
(-0.0325341 -0.103681 0)
(-0.0340756 -0.121796 0)
(-0.0352762 -0.144021 0)
(-0.0349073 -0.168914 0)
(-0.030862 -0.189657 0)
(-0.0245223 -0.195145 0)
(-0.00835241 -0.157138 0)
(-0.00136866 0.056654 0)
(-0.00591022 0.0772605 0)
(-0.0104089 0.0861281 0)
(-0.0149215 0.0946317 0)
(-0.0189827 0.1039 0)
(-0.02231 0.112915 0)
(-0.0251095 0.119952 0)
(-0.0268963 0.122776 0)
(-0.0286001 0.122054 0)
(-0.0299664 0.117594 0)
(-0.0311578 0.110595 0)
(-0.0322259 0.101931 0)
(-0.0331642 0.0921857 0)
(-0.0339871 0.081805 0)
(-0.0346958 0.0710961 0)
(-0.0352746 0.0602429 0)
(-0.0357006 0.0493501 0)
(-0.0359453 0.0384812 0)
(-0.0359769 0.0276868 0)
(-0.0357638 0.0170259 0)
(-0.0352791 0.00657918 0)
(-0.0345059 -0.00354308 0)
(-0.0334504 -0.0132103 0)
(-0.032147 -0.0222886 0)
(-0.0306604 -0.0306701 0)
(-0.0290839 -0.03831 0)
(-0.0275249 -0.0452535 0)
(-0.0260912 -0.0516444 0)
(-0.0248831 -0.0577258 0)
(-0.0239966 -0.06385 0)
(-0.0235339 -0.0705179 0)
(-0.0236084 -0.0784493 0)
(-0.0243189 -0.0886364 0)
(-0.0256604 -0.102256 0)
(-0.0273872 -0.120302 0)
(-0.0289639 -0.14318 0)
(-0.0292343 -0.169689 0)
(-0.0264422 -0.194852 0)
(-0.020903 -0.204674 0)
(-0.00720106 -0.172794 0)
(-0.000640739 0.0593704 0)
(-0.00401274 0.0813849 0)
(-0.0074811 0.0903053 0)
(-0.0108659 0.0983631 0)
(-0.0137597 0.106962 0)
(-0.0159141 0.115284 0)
(-0.0175267 0.121661 0)
(-0.018412 0.124097 0)
(-0.0193064 0.123216 0)
(-0.0201032 0.118689 0)
(-0.0208955 0.111618 0)
(-0.0217022 0.10287 0)
(-0.0224872 0.0930431 0)
(-0.0232348 0.082575 0)
(-0.0239231 0.0717619 0)
(-0.0245234 0.0607821 0)
(-0.025005 0.049736 0)
(-0.0253373 0.038684 0)
(-0.0254891 0.0276755 0)
(-0.0254314 0.0167719 0)
(-0.0251403 0.00606157 0)
(-0.024601 -0.00433176 0)
(-0.0238173 -0.0142527 0)
(-0.022821 -0.0235373 0)
(-0.021673 -0.0320479 0)
(-0.0204608 -0.0397181 0)
(-0.0192845 -0.0465863 0)
(-0.0182413 -0.0528026 0)
(-0.0174174 -0.0586193 0)
(-0.0168909 -0.0643907 0)
(-0.0167437 -0.0706089 0)
(-0.0170752 -0.0779855 0)
(-0.0179925 -0.0875494 0)
(-0.0195349 -0.10063 0)
(-0.0215206 -0.118517 0)
(-0.0234761 -0.141916 0)
(-0.0242713 -0.169932 0)
(-0.0225367 -0.198768 0)
(-0.018419 -0.212728 0)
(-0.00631829 -0.186641 0)
(2.12711e-05 0.0610346 0)
(-0.00210743 0.0843674 0)
(-0.00455482 0.093364 0)
(-0.00685386 0.100976 0)
(-0.00864563 0.108896 0)
(-0.0096936 0.116515 0)
(-0.0101769 0.122332 0)
(-0.0102198 0.124595 0)
(-0.0102896 0.123672 0)
(-0.0104599 0.119269 0)
(-0.0107861 0.112284 0)
(-0.0112635 0.103576 0)
(-0.0118271 0.0937589 0)
(-0.0124323 0.0832693 0)
(-0.0130366 0.0724019 0)
(-0.0135991 0.0613353 0)
(-0.014083 0.0501717 0)
(-0.0144563 0.0389726 0)
(-0.0146908 0.0277895 0)
(-0.0147627 0.0166871 0)
(-0.0146541 0.00576068 0)
(-0.0143555 -0.00485416 0)
(-0.0138727 -0.0149817 0)
(-0.0132348 -0.0244306 0)
(-0.0124965 -0.0330347 0)
(-0.0117345 -0.0407082 0)
(-0.0110347 -0.0474843 0)
(-0.0104786 -0.0535219 0)
(-0.0101358 -0.0590868 0)
(-0.0100659 -0.0645375 0)
(-0.0103331 -0.0703551 0)
(-0.0110228 -0.0772331 0)
(-0.012243 -0.0862111 0)
(-0.0140671 -0.0987335 0)
(-0.0163781 -0.116374 0)
(-0.0187473 -0.140172 0)
(-0.0201246 -0.169648 0)
(-0.0193767 -0.201357 0)
(-0.0161674 -0.219603 0)
(-0.00556464 -0.198714 0)
(0.000811033 0.06119 0)
(-0.000257144 0.0861635 0)
(-0.00169806 0.0953343 0)
(-0.00298445 0.102531 0)
(-0.00375575 0.109777 0)
(-0.00379611 0.116697 0)
(-0.00324876 0.122028 0)
(-0.00242498 0.124265 0)
(-0.00166072 0.123406 0)
(-0.00112762 0.119248 0)
(-0.000913176 0.112504 0)
(-0.000978784 0.103963 0)
(-0.00123871 0.0942518 0)
(-0.00162372 0.0838144 0)
(-0.00207303 0.0729498 0)
(-0.00253437 0.0618438 0)
(-0.00296542 0.050606 0)
(-0.00333339 0.0393045 0)
(-0.00361368 0.0279964 0)
(-0.00378935 0.016752 0)
(-0.00385082 0.00567346 0)
(-0.00379735 -0.00509338 0)
(-0.00364023 -0.0153576 0)
(-0.00340777 -0.0249052 0)
(-0.00314713 -0.0335485 0)
(-0.00291858 -0.0411869 0)
(-0.0027859 -0.0478514 0)
(-0.00280735 -0.0537097 0)
(-0.00303136 -0.059039 0)
(-0.00349946 -0.0642016 0)
(-0.004261 -0.0696664 0)
(-0.00538945 -0.0761016 0)
(-0.00699047 -0.0845388 0)
(-0.00916318 -0.0965044 0)
(-0.0118522 -0.113832 0)
(-0.0146617 -0.137903 0)
(-0.016658 -0.168666 0)
(-0.0167966 -0.203097 0)
(-0.0145754 -0.225416 0)
(-0.00499123 -0.209581 0)
(0.00129751 0.0604312 0)
(0.00142619 0.0868598 0)
(0.0009857 0.0962799 0)
(0.000648524 0.103105 0)
(0.000809423 0.109698 0)
(0.00167353 0.115938 0)
(0.00313635 0.120808 0)
(0.00484363 0.123052 0)
(0.00646336 0.122325 0)
(0.0077274 0.118599 0)
(0.00858934 0.1122 0)
(0.00903946 0.103947 0)
(0.00918156 0.0944426 0)
(0.00910363 0.0841364 0)
(0.00888421 0.073339 0)
(0.00858763 0.0622494 0)
(0.0082624 0.0509899 0)
(0.00794215 0.0396402 0)
(0.00764781 0.0282671 0)
(0.00738901 0.0169493 0)
(0.0071655 0.00579693 0)
(0.00696772 -0.00503507 0)
(0.00677633 -0.015345 0)
(0.00656154 -0.0249053 0)
(0.00628603 -0.0335168 0)
(0.00591132 -0.0410724 0)
(0.00540292 -0.047604 0)
(0.00473217 -0.0532854 0)
(0.00387436 -0.0584002 0)
(0.00280475 -0.0633109 0)
(0.00148875 -0.0684717 0)
(-0.000136556 -0.0745219 0)
(-0.00217574 -0.0824675 0)
(-0.00474908 -0.0938896 0)
(-0.00785604 -0.110856 0)
(-0.0111321 -0.135119 0)
(-0.0137454 -0.167026 0)
(-0.0146855 -0.203927 0)
(-0.0132685 -0.230345 0)
(-0.00452741 -0.219366 0)
(0.00178788 0.0585964 0)
(0.00297997 0.0865025 0)
(0.00345074 0.0962667 0)
(0.0039796 0.10278 0)
(0.00497174 0.108756 0)
(0.00663341 0.114332 0)
(0.00889977 0.118743 0)
(0.0114382 0.120953 0)
(0.0138981 0.12046 0)
(0.0159653 0.117167 0)
(0.0175622 0.111261 0)
(0.0186318 0.103424 0)
(0.0192783 0.0942366 0)
(0.0196015 0.084154 0)
(0.0196924 0.0735011 0)
(0.0196261 0.0624959 0)
(0.0194577 0.051279 0)
(0.0192226 0.0399467 0)
(0.018939 0.0285795 0)
(0.0186099 0.017268 0)
(0.0182257 0.00613229 0)
(0.0177663 -0.00466523 0)
(0.0172045 -0.0149166 0)
(0.0165099 -0.0243903 0)
(0.0156565 -0.0328878 0)
(0.0146303 -0.040305 0)
(0.0134302 -0.0466788 0)
(0.0120615 -0.0521877 0)
(0.0105273 -0.0571152 0)
(0.00881945 -0.0618158 0)
(0.00691431 -0.0667245 0)
(0.00475728 -0.0724461 0)
(0.00224395 -0.0799523 0)
(-0.000762919 -0.0908529 0)
(-0.00431022 -0.107424 0)
(-0.00807276 -0.131802 0)
(-0.0113004 -0.16475 0)
(-0.0129881 -0.204007 0)
(-0.0123659 -0.234558 0)
(-0.00418777 -0.228403 0)
(0.00222001 0.0556961 0)
(0.00436981 0.0851615 0)
(0.00565825 0.0953766 0)
(0.00695482 0.101653 0)
(0.00867121 0.107054 0)
(0.0110189 0.111984 0)
(0.0139712 0.115919 0)
(0.0172514 0.118029 0)
(0.0205032 0.117768 0)
(0.0234119 0.114919 0)
(0.025802 0.109595 0)
(0.0275878 0.102289 0)
(0.0288396 0.0935305 0)
(0.0296589 0.0837735 0)
(0.0301438 0.0733583 0)
(0.0303759 0.0625227 0)
(0.0304155 0.0514293 0)
(0.0303002 0.0401946 0)
(0.0300472 0.0289174 0)
(0.0296545 0.0177034 0)
(0.0291052 0.00668509 0)
(0.0283706 -0.00396887 0)
(0.0274183 -0.0140492 0)
(0.0262216 -0.0233298 0)
(0.0247686 -0.0316257 0)
(0.0230712 -0.0388476 0)
(0.0211621 -0.0450419 0)
(0.0190803 -0.0503879 0)
(0.0168564 -0.0551603 0)
(0.014501 -0.0596962 0)
(0.0119989 -0.0644047 0)
(0.00929949 -0.0698517 0)
(0.00629916 -0.076968 0)
(0.00284499 -0.087369 0)
(-0.00115181 -0.103515 0)
(-0.00541018 -0.127958 0)
(-0.0092305 -0.161862 0)
(-0.0115844 -0.203318 0)
(-0.0116845 -0.238194 0)
(-0.003917 -0.236811 0)
(0.00251316 0.052062 0)
(0.00552978 0.0829543 0)
(0.0075566 0.0937031 0)
(0.0095286 0.0998212 0)
(0.011867 0.104705 0)
(0.014788 0.10901 0)
(0.0183076 0.112446 0)
(0.0222134 0.114374 0)
(0.0261811 0.114265 0)
(0.0298837 0.111848 0)
(0.0330832 0.107128 0)
(0.0356536 0.10044 0)
(0.0376053 0.0922233 0)
(0.0390135 0.0829052 0)
(0.0399742 0.0728343 0)
(0.040572 0.0622695 0)
(0.0408703 0.0513972 0)
(0.040909 0.0403572 0)
(0.0407049 0.0292687 0)
(0.0402526 0.018256 0)
(0.0395319 0.0074641 0)
(0.0385086 -0.00293213 0)
(0.0371519 -0.0127281 0)
(0.035446 -0.0217133 0)
(0.0333968 -0.0297266 0)
(0.0310422 -0.0367017 0)
(0.0284459 -0.0426975 0)
(0.025676 -0.0478907 0)
(0.0227862 -0.0525403 0)
(0.0198034 -0.0569574 0)
(0.0167209 -0.0615158 0)
(0.0134919 -0.0667398 0)
(0.0100116 -0.0735121 0)
(0.0061136 -0.0834372 0)
(0.00167001 -0.0991328 0)
(-0.00308986 -0.123589 0)
(-0.00748279 -0.158396 0)
(-0.0104158 -0.201882 0)
(-0.0112389 -0.241424 0)
(-0.00371044 -0.244797 0)
(0.00264694 0.0478431 0)
(0.00641807 0.0799817 0)
(0.00910296 0.0913328 0)
(0.0116666 0.0973797 0)
(0.0145332 0.101814 0)
(0.0179225 0.105527 0)
(0.0218929 0.108445 0)
(0.0262968 0.110108 0)
(0.0308504 0.110052 0)
(0.035241 0.107989 0)
(0.0392073 0.103841 0)
(0.0425684 0.0978041 0)
(0.0452729 0.0902193 0)
(0.0473486 0.0814563 0)
(0.0488631 0.0718514 0)
(0.0498929 0.0616765 0)
(0.0505012 0.0511406 0)
(0.0507286 0.0404082 0)
(0.0505921 0.0296218 0)
(0.0500863 0.0189254 0)
(0.0491938 0.00847495 0)
(0.0478792 -0.00155372 0)
(0.0461235 -0.0109556 0)
(0.0439281 -0.0195539 0)
(0.0413186 -0.0272172 0)
(0.038359 -0.0339052 0)
(0.0351367 -0.0396892 0)
(0.0317411 -0.0447399 0)
(0.0282437 -0.0492946 0)
(0.0246839 -0.0536315 0)
(0.0210631 -0.0580849 0)
(0.0173373 -0.0631296 0)
(0.0134031 -0.0695985 0)
(0.00908504 -0.0790704 0)
(0.00421599 -0.0942941 0)
(-0.00103195 -0.118705 0)
(-0.0059848 -0.154378 0)
(-0.00942332 -0.199884 0)
(-0.0111481 -0.244047 0)
(-0.00328353 -0.252568 0)
(0.00261818 0.0432362 0)
(0.00700905 0.0763544 0)
(0.0102629 0.0883508 0)
(0.0133433 0.0944109 0)
(0.0166548 0.0984716 0)
(0.0204184 0.101641 0)
(0.0247308 0.104039 0)
(0.0294986 0.105373 0)
(0.0344896 0.105275 0)
(0.039431 0.103451 0)
(0.0440527 0.0997904 0)
(0.0481375 0.0943858 0)
(0.0515746 0.0874726 0)
(0.0543374 0.0793543 0)
(0.0564522 0.070333 0)
(0.0579682 0.0606759 0)
(0.0589348 0.0506068 0)
(0.0593883 0.0403121 0)
(0.059346 0.0299552 0)
(0.0588053 0.0196994 0)
(0.0577556 0.00971113 0)
(0.0561788 0.000162533 0)
(0.0540674 -0.00875655 0)
(0.0514369 -0.0168973 0)
(0.0483422 -0.0241614 0)
(0.0448684 -0.0305346 0)
(0.0411178 -0.0360979 0)
(0.0371926 -0.041013 0)
(0.0331749 -0.0454925 0)
(0.029114 -0.0497795 0)
(0.0250157 -0.0541611 0)
(0.0208428 -0.0590614 0)
(0.0164977 -0.065259 0)
(0.0117943 -0.0742931 0)
(0.00653246 -0.0890142 0)
(0.000814726 -0.113309 0)
(-0.00467829 -0.149823 0)
(-0.00854439 -0.19739 0)
(-0.0111392 -0.246167 0)
(-0.00298959 -0.260243 0)
(0.00243884 0.0384821 0)
(0.0072819 0.0721922 0)
(0.011013 0.0848413 0)
(0.0145442 0.09099 0)
(0.0182276 0.0947603 0)
(0.0222865 0.0974464 0)
(0.0268467 0.0993429 0)
(0.0318547 0.10031 0)
(0.0371492 0.100077 0)
(0.042487 0.0983844 0)
(0.0476014 0.0951073 0)
(0.052276 0.0902694 0)
(0.0563547 0.0840217 0)
(0.0597553 0.0765935 0)
(0.0624559 0.0682434 0)
(0.0644691 0.0592204 0)
(0.0658207 0.0497489 0)
(0.066534 0.040027 0)
(0.0666229 0.0302326 0)
(0.06609 0.0205422 0)
(0.0649349 0.0111311 0)
(0.0631549 0.00216371 0)
(0.060761 -0.00620115 0)
(0.0577964 -0.0138322 0)
(0.0543341 -0.0206632 0)
(0.0504719 -0.0267022 0)
(0.04632 -0.0320355 0)
(0.0419863 -0.0368151 0)
(0.0375586 -0.0412289 0)
(0.0330875 -0.0454786 0)
(0.0285849 -0.0498071 0)
(0.024028 -0.0545897 0)
(0.0193239 -0.060539 0)
(0.0142791 -0.0691441 0)
(0.00866087 -0.0833347 0)
(0.0025026 -0.107426 0)
(-0.00353124 -0.144725 0)
(-0.007744 -0.194441 0)
(-0.0113298 -0.247797 0)
(-0.00250295 -0.267941 0)
(0.00213458 0.03382 0)
(0.00722876 0.0676411 0)
(0.0113472 0.0808888 0)
(0.0152611 0.0871819 0)
(0.019257 0.0907454 0)
(0.0235521 0.0930197 0)
(0.0282864 0.0944532 0)
(0.0334437 0.0950392 0)
(0.0389118 0.0946012 0)
(0.0444912 0.0929577 0)
(0.0499386 0.0899628 0)
(0.0550362 0.0856052 0)
(0.0596091 0.079976 0)
(0.0635371 0.0732436 0)
(0.0667519 0.0656161 0)
(0.0692261 0.0573132 0)
(0.0709555 0.0485476 0)
(0.0719458 0.0395181 0)
(0.0722032 0.0304073 0)
(0.0717337 0.0213945 0)
(0.0705469 0.0126568 0)
(0.0686587 0.00434705 0)
(0.0660997 -0.00340316 0)
(0.0629332 -0.0104852 0)
(0.0592466 -0.016858 0)
(0.0551427 -0.0225455 0)
(0.0507343 -0.0276373 0)
(0.0461289 -0.0322724 0)
(0.0414066 -0.0366081 0)
(0.036621 -0.0408147 0)
(0.0317994 -0.045098 0)
(0.0269284 -0.0497766 0)
(0.0219228 -0.0554911 0)
(0.01659 -0.0636669 0)
(0.0106629 -0.0772879 0)
(0.00410873 -0.101096 0)
(-0.00247723 -0.139107 0)
(-0.00695554 -0.191047 0)
(-0.0116469 -0.248967 0)
(-0.00199881 -0.275747 0)
(0.00174326 0.0294613 0)
(0.00686799 0.0628587 0)
(0.0112721 0.076584 0)
(0.0154964 0.0830484 0)
(0.0197566 0.0864768 0)
(0.0242464 0.0884152 0)
(0.0291053 0.0894393 0)
(0.0343489 0.0896596 0)
(0.0398889 0.0889932 0)
(0.0455792 0.0873201 0)
(0.0512156 0.0845244 0)
(0.0565763 0.0805642 0)
(0.0614834 0.0754924 0)
(0.0657938 0.0694278 0)
(0.0694096 0.0625356 0)
(0.072268 0.0550013 0)
(0.074336 0.0470163 0)
(0.0755993 0.0387683 0)
(0.0760544 0.0304351 0)
(0.075708 0.0221885 0)
(0.0745759 0.014196 0)
(0.0726926 0.00660015 0)
(0.070105 -0.000492117 0)
(0.0668839 -0.00700041 0)
(0.0631244 -0.0128975 0)
(0.0589328 -0.0182171 0)
(0.0544167 -0.0230467 0)
(0.0496673 -0.0275073 0)
(0.0447637 -0.0317367 0)
(0.0397685 -0.0358828 0)
(0.0347125 -0.0401125 0)
(0.0295929 -0.0446871 0)
(0.0243413 -0.0501728 0)
(0.018775 -0.0579163 0)
(0.012596 -0.0709212 0)
(0.00570055 -0.094345 0)
(-0.00142703 -0.132978 0)
(-0.00613857 -0.187271 0)
(-0.0121272 -0.249627 0)
(-0.00125502 -0.283696 0)
(0.00130889 0.0255765 0)
(0.00623917 0.0580141 0)
(0.01081 0.0720293 0)
(0.0152645 0.07865 0)
(0.0197448 0.0819926 0)
(0.0244014 0.0836668 0)
(0.0293591 0.0843439 0)
(0.0346495 0.0842357 0)
(0.0402096 0.0833451 0)
(0.0459201 0.0815985 0)
(0.0516226 0.0789346 0)
(0.0571151 0.0753046 0)
(0.0622139 0.0707289 0)
(0.0667692 0.0652911 0)
(0.0706614 0.059118 0)
(0.0738092 0.0523643 0)
(0.0761561 0.0451954 0)
(0.0776706 0.0377798 0)
(0.0783401 0.0302811 0)
(0.0781683 0.0228559 0)
(0.0771767 0.0156531 0)
(0.0754074 0.00880088 0)
(0.0729199 0.00238975 0)
(0.069787 -0.00352528 0)
(0.0661001 -0.00893181 0)
(0.0619617 -0.0138621 0)
(0.0574647 -0.0183935 0)
(0.0526932 -0.0226385 0)
(0.0477237 -0.0267242 0)
(0.0426137 -0.0307738 0)
(0.0373981 -0.0349211 0)
(0.0320876 -0.0393784 0)
(0.0266362 -0.0446359 0)
(0.0208839 -0.0519456 0)
(0.0145111 -0.0642835 0)
(0.00734532 -0.0871788 0)
(-0.00037674 -0.126321 0)
(-0.00521946 -0.183103 0)
(-0.0127372 -0.249747 0)
(-0.000307709 -0.291743 0)
(0.000869844 0.0222849 0)
(0.00539624 0.0532844 0)
(0.00999465 0.0673402 0)
(0.0145899 0.0740513 0)
(0.019245 0.0773252 0)
(0.0240507 0.078792 0)
(0.0291018 0.0791848 0)
(0.0344294 0.0787961 0)
(0.0399894 0.077702 0)
(0.0456786 0.0758828 0)
(0.051364 0.0733058 0)
(0.0568882 0.0699476 0)
(0.062071 0.0658132 0)
(0.0667592 0.0609579 0)
(0.0708259 0.0554757 0)
(0.0741731 0.0494887 0)
(0.0767368 0.0431371 0)