/*--------------------------------*- C++ -*----------------------------------*\
  =========                 |
  \\      /  F ield         | OpenFOAM: The Open Source CFD Toolbox
   \\    /   O peration     | Website:  https://openfoam.org
    \\  /    A nd           | Version:  12
     \\/     M anipulation  |
\*---------------------------------------------------------------------------*/
FoamFile
{
    format      ascii;
    class       volScalarField;
    location    "286";
    object      epsilon;
}
// * * * * * * * * * * * * * * * * * * * * * * * * * * * * * * * * * * * * * //

dimensions      [0 2 -3 0 0 0 0];

internalField   nonuniform List<scalar> 
12225
(
285.525
270.7
257.922
243.802
232.472
223.072
216.825
212.693
212.742
213.94
217.245
220.861
228.092
232.825
241.239
246.577
254.988
262.774
52.4932
91.8812
106.974
114.746
124.841
136.779
152.682
169.898
191.084
210.922
235.173
255.459
280.954
299.275
324.572
339.16
364.198
373.116
20.5286
34.8726
44.6748
50.4696
55.3938
59.6082
64.6601
69.6445
76.3075
83.1837
91.4167
99.3121
108.139
116.913
125.483
135.212
142.451
153.539
16.0023
19.4865
24.081
27.5642
30.4955
32.8702
35.1531
37.2943
39.4992
41.9178
44.3315
47.1988
49.6731
53.0291
55.3978
59.2112
61.3984
65.5922
15.0385
15.7125
17.3988
19.0788
20.6387
22.0263
23.2452
24.4313
25.4428
26.5943
27.5218
28.7563
29.6294
30.9811
31.8079
33.2558
34.0664
35.6281
14.7897
14.8257
15.2495
15.8677
16.5674
17.2871
17.9234
18.5841
19.1187
19.7336
20.1926
20.798
21.2073
21.8206
22.1959
22.8214
23.1744
23.8508
14.7657
14.6146
14.6409
14.7258
14.935
15.22
15.4915
15.8088
16.0708
16.3824
16.6178
16.9197
17.1303
17.4261
17.6148
17.9103
18.0792
18.4028
14.7687
14.5866
14.466
14.3801
14.3677
14.3896
14.4394
14.5334
14.6184
14.7365
14.8307
14.9562
15.0475
15.1757
15.2605
15.3909
15.4688
15.618
14.768
14.591
14.4349
14.2963
14.185
14.1044
14.0399
14.0066
13.9814
13.9785
13.9808
13.9916
14.004
14.0294
14.0469
14.0791
14.1027
14.1449
14.7665
14.594
14.432
14.282
14.143
14.0219
13.9115
13.8194
13.737
13.6698
13.6102
13.5633
13.5181
13.4871
13.4516
13.4341
13.402
13.4005
14.7659
14.5945
14.4322
14.2803
14.1362
14.0032
13.8782
13.7644
13.6582
13.5629
13.4736
13.3952
13.3198
13.2561
13.1916
13.1408
13.0838
13.0451
14.7657
14.5943
14.4321
14.2798
14.1353
13.9999
13.8715
13.7518
13.6385
13.5337
13.4341
13.343
13.2557
13.1771
13.1003
13.0328
12.9647
12.9074
14.7657
14.5941
14.432
14.2794
14.1349
13.9989
13.8699
13.7485
13.6332
13.525
13.422
13.3257
13.2338
13.1484
13.0663
12.9906
12.9172
12.8502
14.7657
14.5939
14.4318
14.279
14.1346
13.9983
13.8691
13.7472
13.6315
13.5223
13.4184
13.3204
13.227
13.139
13.055
12.9759
12.9002
12.8291
14.7657
14.5938
14.4317
14.2787
14.1342
13.9977
13.8686
13.7464
13.6307
13.5211
13.4171
13.3185
13.2249
13.136
13.0516
12.9714
12.8951
12.8227
14.7657
14.5937
14.4315
14.2785
14.1339
13.9973
13.8681
13.7458
13.63
13.5202
13.4161
13.3174
13.2236
13.1346
13.05
12.9696
12.8931
12.8204
14.7657
14.5937
14.4315
14.2783
14.1337
13.997
13.8677
13.7453
13.6294
13.5195
13.4154
13.3165
13.2227
13.1336
13.0489
12.9684
12.8918
12.819
14.7657
14.5937
14.4314
14.2782
14.1335
13.9968
13.8674
13.7449
13.629
13.5191
13.4148
13.3159
13.222
13.1328
13.0481
12.9675
12.8908
12.8179
14.7657
14.5937
14.4314
14.2782
14.1335
13.9967
13.8673
13.7448
13.6288
13.5189
13.4146
13.3156
13.2217
13.1325
13.0477
12.967
12.8903
12.8174
14.7657
14.5937
14.4314
14.2782
14.1336
13.9968
13.8674
13.745
13.629
13.519
13.4148
13.3158
13.2219
13.1327
13.0479
12.9673
12.8906
12.8177
14.7657
14.5937
14.4315
14.2784
14.1337
13.997
13.8677
13.7453
13.6294
13.5195
13.4154
13.3166
13.2229
13.1338
13.0493
12.9689
12.8926
12.8199
14.7657
14.5937
14.4316
14.2785
14.1341
13.9974
13.8685
13.7464
13.6312
13.522
13.419
13.3213
13.2293
13.1418
13.0594
12.981
12.9073
12.8368
14.7658
14.5937
14.4318
14.2788
14.1353
14.0002
13.8742
13.756
13.6463
13.5435
13.4485
13.3591
13.277
13.1992
13.1282
13.0601
12.9988
12.9386
14.7655
14.5928
14.4328
14.2844
14.1515
14.0321
13.9289
13.8375
13.7592
13.6893
13.6306
13.5769
13.5327
13.4905
13.4574
13.423
13.3989
13.3693
14.7591
14.5932
14.4603
14.3602
14.3029
14.2766
14.2797
14.2939
14.3202
14.3529
14.3959
14.4346
14.4825
14.5217
14.572
14.609
14.6617
14.694
14.7202
14.6909
14.7541
14.9176
15.1829
15.4612
15.7476
16.0121
16.2724
16.5039
16.7362
16.9388
17.1509
17.3311
17.5312
17.6939
17.8891
18.0363
14.7418
15.514
16.5479
17.6844
18.7046
19.5677
20.3374
20.997
21.6197
22.1663
22.7192
23.2112
23.7404
24.2048
24.7333
25.1834
25.7258
26.1669
15.982
20.9901
25.0228
27.7596
29.7843
31.3583
32.777
34.058
35.3597
36.6169
37.9762
39.2982
40.7628
42.1472
43.7196
45.1758
46.8862
48.3612
29.8999
47.2158
54.8682
58.6726
61.6133
64.4317
67.5809
70.9783
74.74
78.7165
82.9882
87.3482
91.9098
96.4559
101.107
105.63
110.183
114.585
165.791
160.073
154.898
149.564
144.479
139.678
135.615
132.109
129.271
126.974
125.321
124.046
123.341
122.831
122.827
122.984
123.272
123.829
0.15405
0.19837
0.371273
0.524084
0.670122
0.834785
1.02626
1.25552
1.52893
1.84608
2.20139
2.58712
2.99549
3.41973
3.85418
4.29408
4.73527
5.17396
5.60655
6.02959
6.43972
6.83386
7.20925
7.5637
7.89559
8.20408
8.48885
8.75004
8.98761
9.20174
39.9047
40.9563
41.7541
42.5733
43.7008
44.1343
44.5186
44.8527
45.0942
43.9318
43.0725
41.8716
41.7472
45.9274
48.6807
52.3985
55.8641
59.7267
63.6324
67.7758
72.0544
76.5269
81.1665
85.9921
90.9982
96.193
101.576
107.154
112.926
118.896
125.067
131.44
138.015
144.797
151.783
158.975
166.371
173.973
181.777
189.782
197.986
206.386
214.976
223.755
232.715
241.853
251.16
260.632
270.259
280.034
289.947
299.99
310.15
320.419
330.782
341.229
351.743
362.314
372.922
383.552
394.183
404.793
415.357
425.849
436.244
446.519
456.661
466.691
476.695
486.513
496.211
505.744
515.115
524.298
533.282
542.051
550.589
558.882
566.914
574.673
582.143
589.312
596.166
602.695
608.884
614.724
620.203
625.314
630.045
634.391
638.342
641.892
645.032
647.76
650.07
651.961
653.427
654.456
655.127
655.384
655.162
654.459
653.321
651.869
650.068
647.792
645.141
642.102
638.69
634.912
630.78
626.305
621.5
616.375
610.942
605.216
599.211
592.942
586.422
579.669
572.697
565.521
558.159
550.625
542.937
535.111
527.163
519.11
510.972
502.769
494.537
486.354
478.747
474.124
470.883
467.725
464.544
461.33
458.089
454.827
451.549
448.257
444.946
441.6
438.186
434.624
430.759
426.142
419.885
395
0.794505
0.494909
0.502425
0.568663
0.670362
0.802533
0.967574
1.16813
1.40501
1.6764
1.97852
2.30665
2.65618
3.02294
3.40345
3.79479
4.19467
4.60142
5.01427
5.43375
5.86247
6.3064
6.77657
7.29221
7.88488
8.60612
9.53908
10.8204
12.6775
15.4981
19.9235
20.8623
21.4751
22.0245
22.4877
22.7312
22.7924
22.9385
23.302
23.8451
24.7934
26.0531
27.23
29.063
30.7328
32.5172
34.3129
36.1908
38.1164
40.1144
42.1749
44.3063
46.5067
48.7791
51.1237
53.5422
56.0351
58.6034
61.2475
63.968
66.7652
69.6393
72.5904
75.6183
78.7227
81.9032
85.1592
88.4899
91.8941
95.371
98.9188
102.536
106.221
109.972
113.786
117.662
121.595
125.585
129.626
133.717
137.853
142.03
146.245
150.493
154.769
159.068
163.385
167.713
172.047
176.38
180.704
185.011
189.295
193.549
197.768
201.954
206.117
210.284
214.516
218.677
222.79
226.842
230.831
234.747
238.587
242.343
246.01
249.583
253.055
256.422
259.676
262.814
265.83
268.719
271.476
274.097
276.577
278.913
281.101
283.137
285.018
286.741
288.303
289.701
290.935
292.002
292.901
293.632
294.201
294.596
294.806
294.835
294.697
294.416
293.981
293.365
292.591
291.656
290.565
289.32
287.925
286.385
284.702
282.882
280.928
278.847
276.642
274.319
271.884
269.342
266.7
263.962
261.135
258.226
255.24
252.184
249.065
245.889
242.663
239.397
236.104
232.816
229.668
227.086
224.83
222.636
220.447
218.254
216.059
213.864
211.671
209.485
207.307
205.14
202.983
200.84
198.696
196.607
194.531
191.105
1.70458
0.882903
0.797587
0.832185
0.917939
1.04275
1.20437
1.40233
1.63541
1.90097
2.1952
2.51392
2.85322
3.20979
3.58105
3.96507
4.36057
4.76692
5.18437
5.61447
6.06064
6.52929
7.03096
7.58201
8.20595
8.93439
9.80511
10.8554
12.1027
13.5032
14.8797
15.6987
16.3967
17.0694
17.727
18.376
19.0581
19.8302
20.7159
21.7211
22.8477
24.0441
25.338
26.7298
28.144
29.6116
31.1263
32.696
34.3179
35.9947
37.7259
39.5127
41.3554
43.2549
45.2115
47.2259
49.2985
51.4297
53.6199
55.8693
58.1782
60.5465
62.9741
65.461
68.0067
70.6112
73.2737
75.9938
78.7706
81.6034
84.491
87.4324
90.4261
93.4708
96.5646
99.7059
102.893
106.123
109.394
112.703
116.048
119.426
122.833
126.267
129.723
133.199
136.689
140.191
143.7
147.211
150.721
154.225
157.72
161.204
164.675
168.136
171.587
175.036
178.472
181.867
185.221
188.528
191.783
194.981
198.116
201.184
204.181
207.101
209.939
212.691
215.353
217.92
220.387
222.752
225.009
227.155
229.187
231.102
232.895
234.565
236.108
237.523
238.806
239.956
240.972
241.852
242.595
243.201
243.671
243.998
244.171
244.21
244.115
243.891
243.536
243.042
242.416
241.659
240.774
239.764
238.632
237.38
236.012
234.532
232.943
231.25
229.456
227.565
225.583
223.514
221.363
219.133
216.831
214.461
212.029
209.539
206.997
204.409
201.78
199.117
196.43
193.742
191.115
188.685
186.396
184.156
181.932
179.715
177.504
175.301
173.109
170.933
168.777
166.645
164.545
162.495
160.507
158.674
157.032
155.429
2.75888
1.32235
1.13388
1.13705
1.2152
1.34091
1.50628
1.7082
1.94426
2.21154
2.50657
2.82572
3.16563
3.52357
3.89747
4.28597
4.68825
5.10411
5.53393
5.97888
6.44121
6.92468
7.43499
7.98037
8.57149
9.22093
9.94044
10.7361
11.5995
12.4992
13.3798
14.1899
14.9913
15.8102
16.6554
17.5352
18.4622
19.4485
20.5006
21.6183
22.799
24.0332
25.3201
26.6496
28.0183
29.4312
30.8903
32.3984
33.9563
35.5654
37.2262
38.9394
40.7057
42.5258
44.4002
46.3295
48.314
50.3544
52.4509
54.604
56.8141
59.0811
61.4055
63.787
66.2258
68.7217
71.2744
73.8835
76.5486
79.2689
82.0437
84.8721
87.7529
90.685
93.6668
96.6968
99.7733
102.894
106.057
109.261
112.502
115.777
119.085
122.421
125.783
129.167
132.57
135.988
139.417
142.854
146.295
149.736
153.174
156.607
160.033
163.45
166.856
170.247
173.612
176.94
180.228
183.469
186.658
189.791
192.862
195.866
198.799
201.655
204.429
207.117
209.714
212.217
214.619
216.919
219.111
221.192
223.158
225.007
226.734
228.338
229.816
231.165
232.382
233.468
234.419
235.234
235.914
236.457
236.864
237.125
237.233
237.224
237.076
236.796
236.383
235.837
235.16
234.355
233.425
232.372
231.199
229.91
228.508
226.996
225.379
223.661
221.845
219.937
217.941
215.861
213.702
211.47
209.168
206.803
204.378
201.9
199.373
196.803
194.196
191.558
188.899
186.235
183.601
181.057
178.589
176.16
173.75
171.353
168.969
166.599
164.248
161.92
159.62
157.355
155.137
152.98
150.917
149.034
147.374
145.93
3.82684
1.77517
1.4786
1.44976
1.51701
1.64062
1.8072
2.01108
2.24876
2.51709
2.81284
3.1328
3.47407
3.83427
4.21167
4.60516
5.01417
5.43865
5.87898
6.33602
6.81116
7.30647
7.82482
8.37002
8.94677
9.5604
10.2159
10.9161
11.6593
12.4367
13.2364
14.0533
14.898
15.7774
16.695
17.6539
18.6569
19.7064
20.8033
21.9463
23.1338
24.3645
25.6391
26.9634
28.3327
29.7477
31.21
32.7212
34.2827
35.8957
37.5611
39.2801
41.0535
42.8822
44.7675
46.7095
48.709
50.7667
52.8832
55.0592
57.2953
59.5918
61.9493
64.3681
66.8483
69.3902
71.9937
74.6587
77.3849
80.1719
83.0192
85.926
88.8914
91.9143
94.9933
98.1271
101.314
104.552
107.839
111.172
114.55
117.969
121.427
124.92
128.445
131.998
135.575
139.174
142.79
146.418
150.056
153.698
157.342
160.983
164.616
168.238
171.842
175.422
178.972
182.483
185.951
189.37
192.734
196.036
199.272
202.436
205.522
208.525
211.44
214.261
216.984
219.604
222.115
224.515
226.798
228.96
230.998
232.908
234.688
236.333
237.842
239.211
240.44
241.525
242.466
243.262
243.911
244.413
244.767
244.958
245.008
244.921
244.686
244.31
243.792
243.133
242.337
241.405
240.341
239.149
237.831
236.391
234.834
233.163
231.382
229.498
227.513
225.433
223.263
221.008
218.673
216.264
213.786
211.243
208.642
205.989
203.288
200.545
197.767
194.96
192.132
189.298
186.479
183.706
180.979
178.283
175.608
172.951
170.313
167.695
165.104
162.544
160.021
157.544
155.128
152.794
150.575
148.547
146.742
145.123
4.85108
2.21671
1.81278
1.75138
1.80557
1.92452
2.08958
2.29276
2.52952
2.79641
3.09035
3.40846
3.7482
4.10751
4.48486
4.87936
5.29057
5.71858
6.16384
6.62719
7.1098
7.61324
8.13942
8.69069
9.2697
9.87936
10.5225
11.2015
11.9172
12.6686
13.4541
14.2736
15.1296
16.0246
16.9602
17.9376
18.9582
20.0227
21.1317
22.2851
23.4829
24.7262
26.0162
27.3543
28.7409
30.1767
31.6628
33.2008
34.792
36.4378
38.1393
39.8979
41.7147
43.5908
45.5271
47.525
49.5858
51.7105
53.9002
56.1559
58.4785
60.8688
63.3276
65.8556
68.4533
71.1211
73.8593
76.6681
79.5474
82.497
85.5165
88.6054
91.7627
94.9874
98.2783
101.634
105.052
108.532
112.07
115.663
119.311
123.008
126.753
130.54
134.368
138.231
142.125
146.047
149.991
153.953
157.928
161.911
165.897
169.88
173.855
177.816
181.756
185.669
189.546
193.381
197.169
200.901
204.571
208.174
211.702
215.149
218.509
221.775
224.943
228.005
230.956
233.792
236.505
239.093
241.55
243.871
246.053
248.091
249.983
251.724
253.313
254.747
256.022
257.139
258.095
258.889
259.52
259.989
260.287
260.412
260.39
260.207
259.864
259.364
258.709
257.9
256.942
255.836
254.587
253.199
251.675
250.021
248.24
246.337
244.318
242.188
239.952
237.616
235.184
232.665
230.061
227.381
224.63
221.813
218.937
216.008
213.032
210.015
206.964
203.885
200.787
197.681
194.582
191.51
188.469
185.454
182.462
179.493
176.548
173.632
170.748
167.904
165.107
162.368
159.702
157.132
154.692
152.446
150.412
148.497
5.79341
2.6298
2.12292
2.02869
2.06811
2.18009
2.34109
2.54089
2.77396
3.03654
3.3256
3.63852
3.97305
4.32741
4.70028
5.09091
5.49901
5.92477
6.36872
6.83176
7.31504
7.82
8.34828
8.90175
9.48238
10.0923
10.7336
11.4083
12.1178
12.8632
13.6451
14.4645
15.3227
16.2211
17.1611
18.1437
19.1702
20.2415
21.3584
22.5219
23.7327
24.992
26.3012
27.6614
29.0738
30.5397
32.0603
33.6372
35.272
36.9663
38.7215
40.5394
42.4215
44.3693
46.3843
48.4682
50.6226
52.849
55.1488
57.5234
59.9742
62.5025
65.1092
67.7956
70.5626
73.4107
76.3407
79.353
82.4478
85.625
88.8844
92.2255
95.6476
99.1496
102.73
106.388
110.121
113.926
117.803
121.746
125.754
129.823
133.949
138.128
142.355
146.627
150.937
155.282
159.654
164.05
168.462
172.886
177.314
181.739
186.155
190.554
194.93
199.273
203.576
207.831
212.032
216.169
220.237
224.227
228.131
231.943
235.656
239.261
242.753
246.125
249.37
252.483
255.456
258.286
260.966
263.492
265.859
268.062
270.1
271.966
273.66
275.177
276.516
277.675
278.653
279.449
280.062
280.492
280.724
280.78
280.661
280.363
279.887
279.236
278.413
277.421
276.264
274.944
273.468
271.838
270.061
268.141
266.083
263.895
261.58
259.146
256.599
253.944
251.189
248.34
245.404
242.387
239.296
236.138
232.919
229.647
226.328
222.968
219.575
216.156
212.719
209.274
205.833
202.409
199.01
195.635
192.286
188.964
185.673
182.417
179.201
176.034
172.924
169.883
166.926
164.079
161.373
158.86
156.542
154.283
6.6266
3.00124
2.39891
2.27225
2.29561
2.39859
2.55317
2.7471
2.9739
3.22949
3.51083
3.8155
4.14151
4.48731
4.85181
5.23443
5.63499
6.05376
6.49137
6.9488
7.42723
7.92807
8.45288
9.00335
9.58119
10.1881
10.826
11.4967
12.2019
12.9431
13.7216
14.5387
15.3958
16.2943
17.2356
18.2209
19.2517
20.3292
21.4549
22.63
23.8557
25.1334
26.4647
27.8512
29.2943
30.7957
32.3572
33.9808
35.6683
37.4217
39.243
41.134
43.097
45.1339
47.2467
49.4376
51.7086
54.0616
56.4986
59.0216
61.6323
64.3324
67.1235
70.0071
72.9845
76.0568
79.2248
82.4894
85.8509
89.3095
92.865
96.5172
100.265
104.108
108.044
112.072
116.189
120.393
124.681
129.049
133.495
138.013
142.6
147.25
151.959
156.721
161.529
166.379
171.262
176.174
181.105
186.05
191
195.947
200.882
205.798
210.685
215.535
220.338
225.086
229.771
234.382
238.912
243.353
247.694
251.929
256.049
260.045
263.911
267.638
271.219
274.648
277.917
281.021
283.953
286.709
289.283
291.671
293.868
295.871
297.677
299.283
300.687
301.886
302.881
303.67
304.254
304.625
304.782
304.745
304.506
304.066
303.429
302.597
301.574
300.363
298.969
297.397
295.651
293.738
291.663
289.432
287.052
284.529
281.871
279.083
276.174
273.15
270.019
266.789
263.467
260.061
256.578
253.026
249.412
245.744
242.029
238.274
234.488
230.677
226.851
223.016
219.186
215.369
211.575
207.806
204.066
200.358
196.687
193.059
189.48
185.958
182.503
179.127
175.848
172.689
169.68
166.863
164.223
161.599
7.33398
3.32246
2.63429
2.47626
2.48271
2.57498
2.72108
2.90695
3.12526
3.37159
3.64288
3.93686
4.25174
4.58623
4.93944
5.31097
5.70074
6.10892
6.53633
6.98412
7.45355
7.94607
8.46326
9.00689
9.57896
10.1807
10.8136
11.4793
12.1795
12.9159
13.6901
14.5035
15.3578
16.2544
17.1951
18.1813
19.2148
20.2973
21.4304
22.6161
23.8564
25.1545
26.511
27.9275
29.4052
30.947
32.5553
34.2325
35.9811
37.8034
39.702
41.6793
43.7378
45.8803
48.1092
50.4272
52.8368
55.3407
57.9414
60.6412
63.4425
66.3476
69.3584
72.477
75.705
79.0438
82.4949
86.0589
89.7367
93.5286
97.4344
101.454
105.586
109.83
114.184
118.645
123.212
127.881
132.65
137.513
142.466
147.505
152.625
157.819
163.081
168.406
173.785
179.211
184.677
190.174
195.694
201.228
206.767
212.301
217.82
223.315
228.776
234.192
239.552
244.848
250.068
255.203
260.243
265.179
269.999
274.695
279.258
283.678
287.947
292.055
295.996
299.761
303.343
306.735
309.93
312.924
315.709
318.283
320.639
322.774
324.686
326.371
327.827
329.052
330.046
330.808
331.339
331.629
331.69
331.525
331.135
330.522
329.69
328.642
327.381
325.913
324.244
322.378
320.322
318.083
315.667
313.082
310.335
307.433
304.385
301.199
297.883
294.445
290.893
287.237
283.485
279.645
275.726
271.736
267.683
263.576
259.424
255.233
251.012
246.769
242.512
238.25
233.993
229.751
225.531
221.339
217.18
213.06
208.983
204.957
200.988
197.085
193.26
189.524
185.896
182.398
179.055
175.904
172.917
169.916
7.90647
3.58883
2.82624
2.63766
2.62756
2.70767
2.84354
3.01952
3.22752
3.4628
3.72227
4.00377
4.30568
4.62673
4.96645
5.32492
5.70261
6.10069
6.51887
6.95786
7.41876
7.90293
8.41186
8.94707
9.51
10.1024
10.7259
11.3823
12.0736
12.8017
13.5682
14.3752
15.2243
16.1175
17.0568
18.044
19.0813
20.1707
21.3143
22.5143
23.7728
25.0915
26.4731
27.9206
29.4375
31.0257
32.6882
34.4281
36.2484
38.152
40.142
42.2213
44.3933
46.661
49.0277
51.4967
54.0711
56.7542
59.5491
62.4587
65.486
68.6337
71.9044
75.3005
78.824
82.4768
86.2603
90.1758
94.2239
98.4052
102.719
107.166
111.744
116.452
121.288
126.249
131.333
136.535
141.852
147.278
152.808
158.437
164.158
169.963
175.847
181.8
187.815
193.882
199.992
206.136
212.303
218.484
224.667
230.841
236.995
243.117
249.197
255.221
261.18
267.06
272.851
278.541
284.119
289.574
294.895
300.071
305.092
309.948
314.63
319.126
323.43
327.531
331.423
335.098
338.549
341.769
344.753
347.496
349.993
352.241
354.235
355.974
357.455
358.677
359.639
360.343
360.785
360.964
360.889
360.559
359.98
359.154
358.086
356.78
355.24
353.473
351.485
349.283
346.874
344.266
341.467
338.484
335.327
332.005
328.525
324.899
321.134
317.241
313.229
309.108
304.886
300.575
296.182
291.717
287.19
282.61
277.985
273.324
268.635
263.928
259.21
254.491
249.779
245.085
240.416
235.779
231.18
226.626
222.123
217.678
213.3
208.997
204.781
200.666
196.668
192.808
189.11
185.603
182.249
178.866
8.34269
3.79876
2.9741
2.75691
2.73069
2.79775
2.92208
3.08673
3.28302
3.50593
3.75218
4.0201
4.3088
4.61823
4.94703
5.29461
5.66089
6.04581
6.45004
6.87507
7.32221
7.79287
8.28847
8.81057
9.36078
9.94093
10.553
11.199
11.8807
12.6
13.359
14.1597
15.0043
15.895
16.8342
17.8241
18.8673
19.9663
21.1237
22.3422
23.6245
24.9735
26.3923
27.8841
29.4505
31.0952
32.8237
34.6404
36.5488
38.5522
40.6542
42.8586
45.1691
47.5898
50.1244
52.777
55.5514
58.4514
61.4809
64.6433
67.9422
71.3809
74.9623
78.6892
82.5639
86.5886
90.7649
95.094
99.5767
104.213
109.003
113.946
119.039
124.282
129.672
135.204
140.876
146.682
152.618
158.678
164.854
171.14
177.529
184.011
190.578
197.221
203.929
210.693
217.5
224.34
231.202
238.073
244.94
251.791
258.614
265.394
272.119
278.776
285.352
291.833
298.207
304.461
310.582
316.559
322.379
328.031
333.503
338.784
343.863
348.73
353.377
357.792
361.969
365.899
369.575
372.99
376.139
379.016
381.616
383.936
385.972
387.722
389.185
390.36
391.245
391.843
392.152
392.175
391.915
391.372
390.555
389.469
388.118
386.506
384.64
382.527
380.175
377.591
374.784
371.763
368.537
365.114
361.506
357.722
353.772
349.667
345.417
341.032
336.525
331.904
327.18
322.365
317.468
312.499
307.469
302.388
297.264
292.107
286.927
281.731
276.53
271.332
266.145
260.98
255.845
250.748
245.694
240.693
235.749
230.873
226.071
221.355
216.735
212.225
207.842
203.605
199.535
195.657
191.927
188.161
8.64806
3.95367
3.07957
2.83686
2.7949
2.84843
2.96028
3.11246
3.29614
3.50677
3.74217
3.99922
4.27615
4.57137
4.88451
5.21597
5.5661
5.93546
6.3254
6.73669
7.17045
7.62802
8.11087
8.62064
9.15907
9.72804
10.3296
10.9657
11.6385
12.3504
13.1035
13.9003
14.7435
15.6355
16.5791
17.5773
18.6331
19.7495
20.9297
22.1768
23.4946
24.8869
26.3563
27.905
29.5363
31.2586
33.076
34.9934
37.017
39.1501
41.3971
43.7623
46.2503
48.8658
51.6134
54.4977
57.5233
60.6947
64.0162
67.492
71.1259
74.9218
78.8827
83.0118
87.3116
91.784
96.4307
101.253
106.25
111.423
116.771
122.292
127.984
133.843
139.867
146.051
152.389
158.877
165.506
172.271
179.163
186.173
193.292
200.51
207.816
215.2
222.649
230.151
237.694
245.265
252.85
260.435
268.007
275.551
283.053
290.497
297.869
305.156
312.341
319.412
326.353
333.151
339.793
346.264
352.553
358.645
364.53
370.195
375.629
380.822
385.762
390.442
394.851
398.982
402.827
406.38
409.634
412.585
415.228
417.559
419.576
421.277
422.66
423.725
424.473
424.904
425.021
424.828
424.321
423.507
422.395
420.992
419.302
417.331
415.086
412.577
409.811
406.797
403.546
400.067
396.37
392.467
388.368
384.085
379.628
375.009
370.241
365.334
360.301
355.152
349.9
344.556
339.132
333.637
328.083
322.481
316.84
311.17
305.482
299.784
294.085
288.395
282.722
277.076
271.466
265.9
260.385
254.928
249.538
244.223
238.992
233.855
228.824
223.913
219.137
214.515
210.063
205.806
201.694
197.55
8.83426
4.05795
3.14627
2.88142
2.82441
2.86424
2.96378
3.10541
3.27895
3.47844
3.69973
3.94128
4.20214
4.48181
4.78038
5.0977
5.43406
5.79008
6.16669
6.56492
6.98601
7.43136
7.90258
8.4014
8.92973
9.48963
10.0833
10.713
11.3812
12.0905
12.8437
13.6438
14.4937
15.3965
16.3555
17.3743
18.4568
19.607
20.8281
22.1234
23.4962
24.9472
26.4849
28.1163
29.8478
31.6845
33.6315
35.6946
37.8801
40.1932
42.639
45.2228
47.9501
50.8264
53.8569
57.0471
60.4019
63.9263
67.6252
71.503
75.5638
79.8114
84.2491
88.8797
93.7054
98.7278
103.948
109.366
114.982
120.795
126.802
133.001
139.389
145.96
152.711
159.634
166.724
173.973
181.372
188.912
196.584
204.376
212.279
220.279
228.365
236.524
244.742
253.004
261.298
269.607
277.917
286.213
294.478
302.698
310.855
318.935
326.921
334.798
342.549
350.16
357.615
364.899
371.999
378.899
385.587
392.048
398.271
404.243
409.952
415.388
420.54
425.399
429.955
434.201
438.129
441.732
445.006
447.944
450.544
452.801
454.714
456.281
457.502
458.377
458.908
459.095
458.948
458.461
457.633
456.479
455.006
453.222
451.13
448.74
446.06
443.098
439.866
436.374
432.631
428.65
424.442
420.019
415.393
410.575
405.58
400.419
395.105
389.651
384.069
378.373
372.574
366.685
360.717
354.683
348.593
342.46
336.293
330.103
323.9
317.694
311.493
305.308
299.147
293.02
286.935
280.9
274.924
269.015
263.18
257.428
251.769
246.213
240.772
235.459
230.289
225.279
220.445
215.808
211.316
206.804
8.89751
4.11163
3.17661
2.89419
2.82448
2.85433
2.94367
3.07274
3.23209
3.41684
3.62413
3.85228
4.10004
4.36683
4.65251
4.95723
5.28141
5.62575
5.99119
6.3789
6.79023
7.22677
7.69031
8.18285
8.7066
9.26392
9.85728
10.4894
11.163
11.8815
12.6481
13.4672
14.3419
15.2755
16.2719
17.3348
18.4669
19.6706
20.9533
22.3214
23.7808
25.3392
27.0016
28.7748
30.6656
32.6803
34.8255
37.1083
39.5353
42.1125
44.8467
47.7444
50.812
54.0556
57.481
61.0938
64.8993
68.9026
73.1084
77.5209
82.1439
86.9808
92.034
97.3055
102.797
108.508
114.439
120.588
126.954
133.534
140.324
147.32
154.516
161.905
169.482
177.237
185.161
193.246
201.481
209.854
218.354
226.969
235.684
244.488
253.364
262.299
271.278
280.284
289.302
298.315
307.308
316.264
325.165
333.995
342.736
351.373
359.888
368.264
376.485
384.536
392.4
400.062
407.507
414.722
421.691
428.401
434.841
440.997
446.857
452.412
457.65
462.563
467.142
471.379
475.268
478.801
481.974
484.783
487.224
489.295
490.994
492.321
493.274
493.858
494.073
493.929
493.424
492.546
491.318
489.745
487.835
485.597
483.036
480.161
476.984
473.515
469.764
465.743
461.463
456.939
452.181
447.202
442.017
436.638
431.079
425.353
419.474
413.457
407.313
401.057
394.702
388.26
381.745
375.169
368.543
361.879
355.188
348.482
341.769
335.06
328.365
321.693
315.052
308.453
301.903
295.411
288.985
282.634
276.365
270.188
264.111
258.145
252.303
246.596
241.039
235.649
230.438
225.427
220.566
215.701
8.88042
4.12265
3.17697
2.88513
2.80595
2.82285
2.89864
3.01487
3.16219
3.33523
3.53098
3.74769
3.98437
4.24056
4.51622
4.81165
5.12746
5.46457
5.82408
6.20734
6.61595
7.05176
7.51692
8.01391
8.54577
9.1156
9.72591
10.3799
11.081
11.8326
12.6379
13.4985
14.4201
15.4087
16.4703
17.6103
18.8353
20.1524
21.567
23.086
24.717
26.4681
28.3465
30.3599
32.516
34.8225
37.2872
39.9178
42.7222
45.7078
48.8825
52.2543
55.8305
59.6172
63.6196
67.8426
72.2907
76.9682
81.8786
87.0249
92.4094
98.0335
103.898
110.003
116.348
122.93
129.747
136.795
144.069
151.565
159.277
167.195
175.314
183.623
192.114
200.776
209.597
218.566
227.67
236.896
246.231
255.659
265.167
274.739
284.359
294.012
303.68
313.347
322.997
332.612
342.175
351.669
361.077
370.38
379.562
388.605
397.492
406.207
414.734
423.055
431.156
439.021
446.636
453.986
461.058
467.838
474.315
480.477
486.311
491.809
496.961
501.757
506.19
510.253
513.939
517.244
520.163
522.692
524.828
526.571
527.919
528.875
529.433
529.606
529.4
528.807
527.823
526.466
524.743
522.662
520.234
517.463
514.36
510.935
507.2
503.166
498.844
494.248
489.391
484.286
478.945
473.384
467.616
461.656
455.517
449.215
442.763
436.177
429.469
422.655
415.747
408.759
401.704
394.596
387.445
380.265
373.066
365.859
358.654
351.462
344.292
337.153
330.054
323.004
316.011
309.084
302.231
295.459
288.778
282.196
275.722
269.367
263.141
257.058
251.131
245.376
239.803
234.434
229.217
224.024
8.82358
4.11322
3.16133
2.85689
2.76541
2.77128
2.83661
2.94268
3.08011
3.24382
3.43097
3.63998
3.87002
4.12082
4.39258
4.68588
5.00181
5.3421
5.70811
6.10133
6.5238
6.97787
7.46608
7.99092
8.55427
9.15818
9.80857
10.5104
11.2688
12.0887
12.9761
13.938
14.9799
16.1085
17.3309
18.655
20.0891
21.6421
23.3224
25.1388
27.1006
29.217
31.4973
33.9507
36.5861
39.4123
42.4375
45.6687
49.1125
52.7788
56.6768
60.8157
65.2073
69.8527
74.753
79.9102
85.3258
91.0009
96.9359
103.13
109.583
116.291
123.253
130.463
137.918
145.611
153.537
161.687
170.054
178.629
187.402
196.364
205.502
214.807
224.264
233.863
243.589
253.43
263.37
273.395
283.491
293.641
303.831
314.045
324.266
334.478
344.665
354.809
364.894
374.903
384.819
394.625
404.303
413.838
423.212
432.409
441.413
450.206
458.775
467.102
475.174
482.977
490.495
497.716
504.628
511.218
517.475
523.388
528.946
534.141
538.964
543.407
547.464
551.127
554.394
557.257
559.715
561.766
563.404
564.636
565.454
565.872
565.867
565.501
564.7
563.507
561.926
559.965
557.631
554.934
551.883
548.487
544.754
540.698
536.331
531.665
526.714
521.49
516.007
510.28
504.322
498.148
491.773
485.211
478.478
471.589
464.558
457.401
450.131
442.763
435.31
427.787
420.207
412.583
404.927
397.25
389.565
381.881
374.209
366.56
358.941
351.363
343.834
336.362
328.956
321.622
314.37
307.208
300.142
293.183
286.338
279.618
273.034
266.598
260.324
254.224
248.309
242.601
237.05
231.555
8.7069
4.08078
3.12569
2.81356
2.7153
2.71463
2.774
2.87514
3.00892
3.17063
3.35797
3.56991
3.80562
4.06515
4.34907
4.65822
4.99352
5.35522
5.74557
6.16828
6.62682
7.12484
7.6664
8.25606
8.89941
9.60261
10.3709
11.211
12.1302
13.1366
14.239
15.4469
16.7696
18.2168
19.7989
21.5268
23.4119
25.4656
27.6993
30.1243
32.7519
35.5925
38.6566
41.9538
45.4933
49.2834
53.3308
57.6416
62.2215
67.0765
72.2123
77.6358
83.3517
89.3527
95.6343
102.192
109.022
116.118
123.475
131.086
138.944
147.041
155.369
163.918
172.679
181.643
190.798
200.135
209.641
219.305
229.116
239.061
249.127
259.303
269.574
279.928
290.351
300.829
311.348
321.895
332.454
343.013
353.554
364.065
374.53
384.934
395.262
405.498
415.628
425.634
435.504
445.22
454.768
464.132
473.298
482.25
490.973
499.453
507.677
515.629
523.298
530.668
537.73
544.469
550.876
556.941
562.652
568
572.975
577.571
581.78
585.596
589.012
592.023
594.627
596.82
598.597
599.962
600.903
601.442
601.547
601.279
600.58
599.472
597.964
596.063
593.776
591.109
588.074
584.681
580.937
576.852
572.438
567.707
562.672
557.347
551.745
545.879
539.765
533.416
526.847
520.073
513.109
505.97
498.672
491.228
483.655
475.967
468.179
460.304
452.357
444.351
436.299
428.215
420.11
411.995
403.882
395.781
387.703
379.656
371.649
363.692
355.792
347.956
340.194
332.512
324.917
317.417
310.021
302.735
295.569
288.532
281.636
274.891
268.309
261.905
255.686
249.677
243.825
238.072
8.58755
4.02837
3.08104
2.77027
2.67239
2.67307
2.73628
2.84365
2.98621
3.15935
3.36028
3.58694
3.84076
4.123
4.43531
4.77988
5.15956
5.57838
6.04021
6.54952
7.1119
7.73377
8.42242
9.18604
10.0338
10.9755
12.0213
13.1826
14.4719
15.9022
17.4872
19.2413
21.1788
23.3144
25.6631
28.2394
31.0572
34.1295
37.4688
41.0868
44.9937
49.1972
53.7034
58.5177
63.6447
69.0864
74.8411
80.907
87.2839
93.9694
100.959
108.262
115.839
123.678
131.771
140.103
148.664
157.44
166.419
175.588
184.935
194.449
204.117
213.926
223.867
233.926
244.092
254.355
264.703
275.124
285.609
296.145
306.722
317.329
327.954
338.587
349.216
359.83
370.418
380.968
391.468
401.907
412.273
422.553
432.737
442.81
452.762
462.578
472.246
481.754
491.088
500.235
509.183
517.918
526.427
534.698
542.717
550.472
557.952
565.143
572.034
578.614
584.871
590.796
596.38
601.613
606.486
610.991
615.12
618.866
622.225
625.19
627.754
629.914