/*--------------------------------*- C++ -*----------------------------------*\
  =========                 |
  \\      /  F ield         | OpenFOAM: The Open Source CFD Toolbox
   \\    /   O peration     | Website:  https://openfoam.org
    \\  /    A nd           | Version:  12
     \\/     M anipulation  |
\*---------------------------------------------------------------------------*/
FoamFile
{
    format      ascii;
    class       volScalarField;
    location    "286";
    object      k;
}
// * * * * * * * * * * * * * * * * * * * * * * * * * * * * * * * * * * * * * //

dimensions      [0 2 -2 0 0 0 0];

internalField   nonuniform List<scalar> 
12225
(
0.362816
0.343986
0.327752
0.309809
0.295412
0.283467
0.275529
0.270278
0.270336
0.271886
0.276041
0.280713
0.289804
0.29575
0.306749
0.312735
0.325187
0.327541
0.440186
0.468697
0.461606
0.448367
0.450346
0.458307
0.474579
0.498485
0.524413
0.55206
0.580732
0.606102
0.633777
0.653796
0.67964
0.692933
0.717946
0.724229
0.39054
0.417873
0.420232
0.416827
0.411628
0.407802
0.408021
0.410033
0.414565
0.421381
0.430717
0.439702
0.451148
0.461134
0.47278
0.483495
0.493435
0.505741
0.377546
0.386982
0.391407
0.391343
0.390221
0.387895
0.385664
0.384079
0.382884
0.382896
0.383354
0.384377
0.386268
0.388457
0.390892
0.394222
0.396511
0.400919
0.374562
0.37609
0.378412
0.378666
0.378263
0.377204
0.37549
0.373737
0.37201
0.370455
0.369255
0.368109
0.367379
0.366801
0.366439
0.366326
0.366343
0.366685
0.373814
0.372709
0.372645
0.372384
0.371761
0.370816
0.369554
0.368083
0.366572
0.364977
0.363528
0.362063
0.360756
0.359528
0.358396
0.357425
0.356436
0.355778
0.373782
0.371742
0.370386
0.369287
0.368234
0.367114
0.365915
0.364587
0.363239
0.361808
0.360423
0.359024
0.357679
0.356384
0.355122
0.353967
0.352795
0.351803
0.37382
0.37156
0.369634
0.367976
0.366501
0.365108
0.363776
0.36243
0.361108
0.359767
0.358451
0.357145
0.355865
0.354624
0.353403
0.352252
0.351101
0.350054
0.373832
0.371553
0.369449
0.367525
0.365777
0.364154
0.362645
0.361199
0.359818
0.358474
0.357171
0.355904
0.354669
0.353477
0.352309
0.351198
0.350099
0.349075
0.373831
0.37156
0.369418
0.367405
0.365529
0.363773
0.362133
0.360585
0.359122
0.357728
0.356395
0.355119
0.353889
0.352712
0.351571
0.350483
0.349422
0.348422
0.373829
0.37156
0.369413
0.367378
0.365458
0.363645
0.361937
0.360324
0.358799
0.357353
0.35598
0.354673
0.353425
0.352236
0.351095
0.35001
0.348961
0.34797
0.373828
0.371558
0.369409
0.36737
0.365439
0.363609
0.361876
0.360234
0.358678
0.357202
0.3558
0.354469
0.353201
0.351995
0.350843
0.349748
0.348696
0.347702
0.373827
0.371556
0.369405
0.367365
0.36543
0.363593
0.361851
0.360197
0.358626
0.357134
0.355716
0.354368
0.353085
0.351865
0.350701
0.349595
0.348536
0.347532
0.373826
0.371555
0.369401
0.367359
0.365422
0.363583
0.361837
0.360178
0.3586
0.357101
0.355674
0.354317
0.353025
0.351795
0.350622
0.349506
0.34844
0.347427
0.373826
0.371553
0.369398
0.367355
0.365416
0.363575
0.361826
0.360164
0.358584
0.357081
0.355651
0.35429
0.352993
0.351758
0.35058
0.349458
0.348388
0.347368
0.373826
0.371552
0.369396
0.367351
0.36541
0.363567
0.361817
0.360153
0.358571
0.357067
0.355634
0.35427
0.352971
0.351734
0.350554
0.349429
0.348356
0.347333
0.373825
0.371551
0.369394
0.367348
0.365406
0.363562
0.36181
0.360145
0.358561
0.357055
0.355621
0.354256
0.352955
0.351716
0.350534
0.349408
0.348333
0.347308
0.373825
0.371551
0.369393
0.367346
0.365403
0.363558
0.361805
0.360139
0.358554
0.357047
0.355612
0.354245
0.352943
0.351703
0.35052
0.349392
0.348316
0.347289
0.373825
0.37155
0.369393
0.367345
0.365402
0.363557
0.361804
0.360137
0.358552
0.357043
0.355607
0.35424
0.352938
0.351696
0.350513
0.349384
0.348307
0.34728
0.373825
0.371551
0.369393
0.367347
0.365404
0.363559
0.361806
0.360139
0.358554
0.357046
0.355611
0.354244
0.352941
0.3517
0.350516
0.349388
0.348311
0.347284
0.373825
0.371551
0.369395
0.367349
0.365407
0.363563
0.361811
0.360145
0.358562
0.357055
0.355621
0.354255
0.352954
0.351715
0.350533
0.349406
0.348332
0.347307
0.373826
0.371552
0.369397
0.367352
0.365412
0.363571
0.361822
0.360161
0.358583
0.357083
0.355656
0.354298
0.353006
0.351774
0.350601
0.349482
0.348416
0.347397
0.373826
0.371554
0.369399
0.367359
0.365428
0.363602
0.361875
0.36024
0.35869
0.35722
0.355823
0.354493
0.353226
0.352018
0.350865
0.349762
0.34871
0.3477
0.373828
0.371551
0.369412
0.367417
0.365556
0.363819
0.362189
0.360651
0.359188
0.357793
0.356456
0.355171
0.353935
0.352745
0.3516
0.350495
0.349435
0.348409
0.373824
0.371554
0.369604
0.367892
0.366339
0.364892
0.363494
0.362122
0.360761
0.359413
0.358081
0.35677
0.355488
0.354238
0.353029
0.351855
0.350734
0.349645
0.373788
0.371991
0.371112
0.370265
0.36936
0.368312
0.367049
0.36563
0.364121
0.362576
0.361031
0.359523
0.358074
0.356683
0.355382
0.354142
0.35301
0.351925
0.374338
0.375569
0.377776
0.377861
0.377291
0.375889
0.373838
0.371644
0.369508
0.367485
0.365666
0.364086
0.362713
0.361537
0.360612
0.35982
0.359292
0.358803
0.379003
0.394321
0.398267
0.396583
0.392547
0.38761
0.383646
0.38046
0.378271
0.376856
0.376501
0.376746
0.377419
0.378696
0.380447
0.382428
0.384833
0.387144
0.408413
0.427549
0.422415
0.411063
0.40223
0.397928
0.398562
0.401122
0.405992
0.413046
0.421005
0.429838
0.438847
0.448203
0.45732
0.466566
0.475337
0.484197
0.366042
0.353412
0.341986
0.330209
0.318982
0.308382
0.299409
0.291675
0.285405
0.280335
0.276684
0.27387
0.272315
0.271178
0.271216
0.271478
0.272194
0.273396
0.00053419
0.00314159
0.00587728
0.00829191
0.0106022
0.0132039
0.0162316
0.0198598
0.0241914
0.0292168
0.0348468
0.0409545
0.0474142
0.0541121
0.0609521
0.067849
0.0747265
0.0815103
0.0881261
0.0944964
0.100537
0.106156
0.111249
0.1157
0.119368
0.122094
0.123661
0.123794
0.122072
0.117862
0.110103
0.113009
0.117008
0.121308
0.125007
0.129129
0.133354
0.137576
0.139784
0.143344
0.14651
0.147432
0.148376
0.159073
0.164785
0.173074
0.18051
0.188652
0.196708
0.205069
0.213523
0.222176
0.23097
0.239934
0.249052
0.25833
0.267764
0.277355
0.2871
0.296999
0.307048
0.317247
0.327591
0.338077
0.348701
0.35946
0.370347
0.381359
0.392487
0.403729
0.415074
0.426518
0.43805
0.449666
0.461353
0.473106
0.484911
0.496763
0.508648
0.520559
0.532481
0.544407
0.55632
0.568215
0.580072
0.591884
0.603633
0.615309
0.626893
0.638372
0.649725
0.660933
0.671974
0.682824
0.693461
0.703867
0.714035
0.723991
0.733828
0.743387
0.75274
0.761847
0.770715
0.779323
0.787666
0.795732
0.803511
0.810994
0.818171
0.825034
0.831573
0.837781
0.84365
0.849174
0.854344
0.859156
0.863602
0.867679
0.871381
0.874706
0.877649
0.880206
0.882373
0.884151
0.885536
0.886531
0.88713
0.887328
0.88719
0.886678
0.885726
0.884339
0.88255
0.880473
0.878081
0.875255
0.872087
0.868563
0.864697
0.860496
0.855969
0.851125
0.845975
0.840525
0.834786
0.828769
0.822484
0.815944
0.809159
0.802142
0.794906
0.787462
0.779823
0.772002
0.764012
0.755867
0.74758
0.739164
0.730637
0.722017
0.713335
0.704659
0.696459
0.691066
0.687119
0.683259
0.679369
0.675439
0.671475
0.667482
0.663466
0.659425
0.655356
0.651244
0.647054
0.642708
0.638051
0.632638
0.625583
0.59978
0.00275814
0.0115579
0.0175726
0.0220407
0.0259704
0.0298095
0.0339155
0.0384993
0.0436553
0.0493798
0.0556069
0.0622426
0.069189
0.0763557
0.0836647
0.0910471
0.0984403
0.105784
0.113016
0.120074
0.126884
0.133368
0.139438
0.144994
0.149931
0.154146
0.157555
0.160141
0.162028
0.163651
0.166094
0.171877
0.178696
0.185954
0.193557
0.201809
0.210549
0.219618
0.229429
0.241031
0.253478
0.266823
0.283264
0.296299
0.308151
0.320881
0.333945
0.347453
0.36129
0.375468
0.389963
0.404779
0.41991
0.435358
0.451122
0.467204
0.483604
0.500323
0.517361
0.534718
0.552393
0.570386
0.588693
0.607313
0.626242
0.645476
0.665009
0.684837
0.704952
0.725347
0.746013
0.766941
0.788121
0.809541
0.831188
0.853052
0.875116
0.897367
0.919789
0.942365
0.965078
0.987911
1.01084
1.03386
1.05693
1.08004
1.10317
1.12629
1.14938
1.17241
1.19536
1.2182
1.24088
1.26338
1.28565
1.30765
1.32933
1.3506
1.37139
1.39191
1.41212
1.43199
1.45152
1.47068
1.48945
1.5078
1.52571
1.54317
1.56015
1.57664
1.59261
1.60804
1.62292
1.63723
1.65095
1.66407
1.67657
1.68843
1.69965
1.71022
1.72011
1.72932
1.73784
1.74566
1.75278
1.75918
1.76487
1.76984
1.7741
1.77765
1.78048
1.78246
1.78359
1.78412
1.78412
1.78329
1.78174
1.77949
1.77655
1.77292
1.76862
1.76366
1.75805
1.75181
1.74495
1.73749
1.72945
1.72084
1.71168
1.70199
1.6918
1.68112
1.66998
1.65839
1.64639
1.63399
1.62122
1.6081
1.59466
1.58092
1.56693
1.55273
1.53846
1.52458
1.51084
1.497
1.48304
1.469
1.45488
1.44073
1.42654
1.41235
1.39815
1.38395
1.36973
1.35545
1.34095
1.32621
1.30984
1.27337
0.00591989
0.0200144
0.0280685
0.0340373
0.0393163
0.0444503
0.0497459
0.055385
0.0614554
0.0679702
0.0748916
0.0821552
0.0896898
0.0974281
0.105311
0.113288
0.121315
0.129349
0.137352
0.145282
0.153098
0.160757
0.168215
0.175436
0.182393
0.189091
0.19558
0.201998
0.208597
0.215761
0.223949
0.233494
0.243936
0.255066
0.266838
0.279257
0.292277
0.305949
0.3204
0.335617
0.351445
0.367995
0.38478
0.401032
0.417357
0.43409
0.451233
0.468801
0.486775
0.505148
0.523912
0.543064
0.562602
0.582526
0.602835
0.62353
0.644609
0.666072
0.68792
0.71015
0.732761
0.75575
0.779114
0.80285
0.826952
0.851414
0.876229
0.901391
0.92689
0.952716
0.978859
1.00531
1.03205
1.05907
1.08635
1.11388
1.14164
1.16961
1.19777
1.22611
1.2546
1.28321
1.31194
1.34075
1.36961
1.39851
1.42741
1.45628
1.48511
1.51385
1.54248
1.57096
1.59927
1.62736
1.65521
1.68278
1.71004
1.73698
1.76357
1.7898
1.81565
1.84107
1.86606
1.89056
1.91457
1.93804
1.96094
1.98326
2.00497
2.02604
2.04644
2.06614
2.08514
2.1034
2.1209
2.13762
2.15355
2.16866
2.18294
2.19637
2.20893
2.22062
2.23142
2.24132
2.25031
2.25838
2.26553
2.27176
2.27706
2.28143
2.28486
2.28731
2.28868
2.28921
2.28896
2.28772
2.28557
2.28251
2.27857
2.27374
2.26806
2.26153
2.25417
2.246
2.23704
2.22731
2.21684
2.20564
2.19375
2.18118
2.16796
2.15413
2.1397
2.12471
2.10918
2.09315
2.07665
2.05971
2.04236
2.02463
2.00658
1.98825
1.96977
1.95135
1.93293
1.9144
1.89573
1.87696
1.85811
1.83922
1.82031
1.80141
1.78256
1.76376
1.74504
1.72642
1.70786
1.68945
1.66994
1.63826
0.00958381
0.0280718
0.0380354
0.0452957
0.0516204
0.0576675
0.0637758
0.0701375
0.0768512
0.0839465
0.0914057
0.0991846
0.107229
0.115486
0.123911
0.132464
0.141115
0.14984
0.158618
0.167432
0.176268
0.185118
0.193978
0.202858
0.21178
0.220795
0.229982
0.239464
0.249402
0.259977
0.271339
0.28354
0.296485
0.310107
0.324374
0.339274
0.354794
0.370936
0.387713
0.405104
0.423046
0.441463
0.460199
0.479157
0.498422
0.518066
0.53812
0.558605
0.579526
0.600885
0.622684
0.644921
0.667598
0.690715
0.714274
0.738273
0.762715
0.787599
0.812925
0.838691
0.864897
0.891539
0.918614
0.946119
0.974048
1.00239
1.03115
1.06031
1.08986
1.1198
1.1501
1.18077
1.21177
1.2431
1.27474
1.30668
1.33888
1.37134
1.40403
1.43692
1.46999
1.50322
1.53658
1.57004
1.60358
1.63716
1.67074
1.70431
1.73783
1.77125
1.80456
1.83772
1.87069
1.90343
1.93592
1.96812
2
2.03152
2.06266
2.09338
2.12364
2.15341
2.18266
2.21133
2.23942
2.26686
2.29364
2.31973
2.34508
2.36967
2.39347
2.41645
2.43858
2.45983
2.48019
2.49962
2.51811
2.53562
2.55215
2.56767
2.58217
2.59562
2.60803
2.61936
2.62962
2.6388
2.64689
2.65388
2.65978
2.66459
2.66827
2.67082
2.67211
2.67246
2.67177
2.66998
2.6671
2.66317
2.6582
2.65219
2.64518
2.63718
2.62822
2.6183
2.60747
2.59574
2.58314
2.5697
2.55545
2.54041
2.52463
2.50813
2.49094
2.47309
2.45463
2.43559
2.416
2.39591
2.37534
2.35435
2.33297
2.31128
2.28937
2.26739
2.24531
2.22309
2.20074
2.17827
2.15573
2.13316
2.11059
2.08806
2.06562
2.04332
2.02121
1.99937
1.97786
1.95684
1.93522
1.90608
0.0132945
0.03565
0.0473757
0.0558258
0.0630782
0.0698903
0.0766445
0.0835571
0.0907461
0.0982631
0.106113
0.114273
0.122705
0.131373
0.14024
0.14928
0.158474
0.167808
0.177278
0.186882
0.196626
0.206523
0.216593
0.226864
0.237377
0.248187
0.259361
0.270982
0.283137
0.295911
0.309362
0.323509
0.33833
0.353802
0.369904
0.386621
0.403944
0.421864
0.440376
0.459461
0.479089
0.49921
0.519779
0.540769
0.562187
0.584047
0.606363
0.629147
0.652408
0.676153
0.700386
0.725111
0.750331
0.776048
0.802264
0.828981
0.856202
0.883927
0.912156
0.94089
0.970127
0.999866
1.0301
1.06084
1.09206
1.12377
1.15595
1.18861
1.22172
1.25528
1.28927
1.32368
1.3585
1.3937
1.42927
1.46519
1.50143
1.53798
1.5748
1.61187
1.64917
1.68666
1.72431
1.76209
1.79997
1.83791
1.87589
1.91385
1.95177
1.98961
2.02733
2.06489
2.10225
2.13937
2.17622
2.21275
2.24893
2.2847
2.32004
2.3549
2.38923
2.423
2.45616
2.48867
2.52049
2.55159
2.58192
2.61144
2.64012
2.66793
2.69482
2.72077
2.74574
2.7697
2.79262
2.81448
2.83526
2.85491
2.87343
2.8908
2.90698
2.92198
2.93576
2.94832
2.95965
2.96974
2.97858
2.98617
2.99251
2.99759
3.00141
3.00391
3.00504
3.00509
3.0039
3.00148
2.99783
2.99299
2.98696
2.97977
2.97144
2.962
2.95146
2.93985
2.92721
2.91356
2.89894
2.88337
2.86689
2.84953
2.83133
2.81233
2.79256
2.77207
2.75088
2.72905
2.70661
2.68361
2.66009
2.63609
2.61168
2.5869
2.56186
2.53664
2.51127
2.48574
2.46007
2.43428
2.40842
2.38254
2.35668
2.33091
2.30528
2.27986
2.25475
2.23008
2.20597
2.18261
2.15908
2.13055
0.016854
0.0425624
0.0558754
0.0654114
0.0735006
0.080984
0.0882858
0.0956471
0.103208
0.111041
0.119174
0.127607
0.13632
0.14529
0.154494
0.163916
0.173545
0.183378
0.193419
0.203678
0.214172
0.224924
0.235961
0.247319
0.259041
0.271174
0.28377
0.296883
0.310564
0.324859
0.339796
0.355387
0.371626
0.388504
0.406009
0.424129
0.442854
0.462177
0.482089
0.502579
0.523632
0.545229
0.567349
0.589981
0.613121
0.636771
0.660937
0.685625
0.710844
0.736601
0.762902
0.789753
0.817159
0.845124
0.873654
0.902751
0.932419
0.962659
0.993474
1.02487
1.05683
1.08938
1.12249
1.15618
1.19043
1.22525
1.26061
1.29653
1.33297
1.36994
1.40742
1.44539
1.48383
1.52274
1.56207
1.60182
1.64196
1.68246
1.7233
1.76443
1.80584
1.84749
1.88934
1.93136
1.97351
2.01575
2.05804
2.10034
2.1426
2.18479
2.22686
2.26877
2.31046
2.3519
2.39304
2.43382
2.47421
2.51415
2.55359
2.59248
2.63079
2.66845
2.70543
2.74168
2.77714
2.81178
2.84555
2.87841
2.91032
2.94123
2.9711
2.9999
3.0276
3.05416
3.07954
3.10371
3.12666
3.14834
3.16874
3.18783
3.20559
3.22201
3.23707
3.25074
3.26303
3.27392
3.28341
3.2915
3.29818
3.30344
3.3073
3.30967
3.31059
3.31024
3.3085
3.30538
3.30091
3.2951
3.28798
3.27957
3.26989
3.25898
3.24686
3.23356
3.21912
3.20356
3.18693
3.16926
3.15059
3.13096
3.1104
3.08897
3.06669
3.04362
3.0198
2.99528
2.97009
2.9443
2.91793
2.89106
2.86372
2.83599
2.80795
2.77967
2.75118
2.72252
2.6937
2.66477
2.63577
2.60677
2.57781
2.54897
2.52033
2.49199
2.46406
2.43671
2.41011
2.38448
2.35895
2.3298
0.0201299
0.048685
0.0633841
0.0738807
0.082711
0.0907836
0.098557
0.106294
0.114153
0.122228
0.130568
0.139191
0.148096
0.157276
0.166721
0.176423
0.186381
0.1966
0.207088
0.217864
0.228948
0.240367
0.252152
0.264338
0.276961
0.290063
0.30368
0.317853
0.332614
0.347992
0.364004
0.38066
0.39796
0.4159
0.434475
0.453676
0.473499
0.493935
0.514981
0.53663
0.558876
0.58171
0.605126
0.629117
0.653683
0.678823
0.704542
0.730846
0.757743
0.78524
0.813345
0.842065
0.871407
0.901379
0.931986
0.963233
0.995127
1.02767
1.06087
1.09472
1.12923
1.1644
1.20023
1.23671
1.27385
1.31163
1.35005
1.38911
1.42878
1.46906
1.50993
1.55138
1.59339
1.63593
1.67898
1.72252
1.76651
1.81094
1.85576
1.90095
1.94646
1.99226
2.03832
2.08458
2.131
2.17755
2.22417
2.27081
2.31744
2.36399
2.41042
2.45668
2.50272
2.54847
2.59389
2.63892
2.68351
2.72759
2.77112
2.81404
2.85629
2.89783
2.9386
2.97854
3.01761
3.05576
3.09293
3.12907
3.16415
3.19811
3.23091
3.26251
3.29287
3.32196
3.34972
3.37614
3.40118
3.42482
3.44702
3.46776
3.48702
3.50477
3.52102
3.53572
3.54889
3.5605
3.57055
3.57905
3.58599
3.59136
3.59518
3.59734
3.59799
3.59716
3.5948
3.59093
3.58557
3.57875
3.57049
3.56081
3.54975
3.53734
3.52361
3.5086
3.49234
3.47487
3.45623
3.43647
3.41561
3.39372
3.37084
3.347
3.32225
3.29666
3.27025
3.24309
3.21522
3.18669
3.15756
3.12788
3.09771
3.06711
3.03615
3.0049
2.97342
2.94174
2.9099
2.87794
2.84592
2.8139
2.78196
2.75018
2.71864
2.68747
2.65681
2.62685
2.5978
2.56984
2.54218
2.51159
0.0230277
0.0539381
0.069807
0.0811227
0.0905876
0.0991644
0.107338
0.115388
0.123488
0.131748
0.140235
0.148984
0.158014
0.167329
0.176933
0.186827
0.197017
0.207515
0.218334
0.229495
0.24102
0.252938
0.265277
0.278069
0.291347
0.305143
0.319487
0.334408
0.34993
0.366075
0.382855
0.400281
0.418356
0.437082
0.456455
0.476475
0.497138
0.518443
0.540387
0.56297
0.586189
0.610043
0.634532
0.659656
0.685416
0.711815
0.73886
0.766557
0.794914
0.823941
0.853647
0.884042
0.915133
0.946931
0.979443
1.01268
1.04664
1.08134
1.11678
1.15297
1.1899
1.22759
1.26603
1.30521
1.34515
1.38582
1.42724
1.46937
1.51222
1.55578
1.60001
1.64492
1.69046
1.73663
1.78339
1.83072
1.87859
1.92695
1.97578
2.02504
2.07468
2.12466
2.17494
2.22547
2.2762
2.32708
2.37806
2.42908
2.48009
2.53103
2.58185
2.63247
2.68286
2.73293
2.78264
2.83191
2.88069
2.92891
2.97651
3.02343
3.06962
3.115
3.15953
3.20313
3.24577
3.28737
3.32789
3.36727
3.40547
3.44242
3.47808
3.51241
3.54536
3.57689
3.60697
3.63555
3.66261
3.68811
3.71202
3.73432
3.75499
3.774
3.79133
3.80698
3.82093
3.83317
3.8437
3.85252
3.85963
3.86502
3.86872
3.87063
3.87091
3.86953
3.86649
3.8618
3.8555
3.84761
3.83815
3.82717
3.81469
3.80074
3.78538
3.76863
3.75054
3.73115
3.7105
3.68864
3.66562
3.64149
3.61629
3.59008
3.56291
3.53483
3.50589
3.47614
3.44564
3.41445
3.38262
3.35021
3.31727
3.28387
3.25008
3.21597
3.18159
3.147
3.11223
3.07734
3.0424
3.00748
2.97266
2.93802
2.90367
2.86976
2.83643
2.80391
2.77239
2.74205
2.71214
2.6799
0.0254891
0.0582906
0.0751066
0.0870899
0.0970749
0.106066
0.114566
0.122868
0.131156
0.139553
0.14814
0.156966
0.166064
0.175454
0.185148
0.195157
0.205495
0.216176
0.227217
0.238641
0.250472
0.262735
0.275457
0.288667
0.302393
0.316661
0.331497
0.346925
0.362963
0.37963
0.396938
0.414899
0.433518
0.452802
0.472752
0.493371
0.514662
0.536626
0.559266
0.582584
0.606583
0.631268
0.656642
0.682711
0.709479
0.736953
0.765142
0.794056
0.823703
0.854097
0.885248
0.917167
0.949867
0.983358
1.01765
1.05276
1.08868
1.12544
1.16303
1.20147
1.24076
1.28089
1.32188
1.36373
1.40642
1.44996
1.49433
1.53954
1.58556
1.63238
1.67998
1.72834
1.77744
1.82726
1.87775
1.92889
1.98065
2.03298
2.08584
2.13919
2.19299
2.24718
2.30171
2.35653
2.41159
2.46682
2.52217
2.57757
2.63297
2.68829
2.74348
2.79846
2.85317
2.90754
2.9615
3.01498
3.0679
3.12021
3.17183
3.2227
3.27275
3.32191
3.37011
3.41731
3.46342
3.50839
3.55217
3.59468
3.63589
3.67572
3.71414
3.75108
3.78651
3.82038
3.85265
3.88328
3.91224
3.93948
3.96499
3.98873
4.01068
4.03082
4.04914
4.06561
4.08024
4.093
4.1039
4.11294
4.12011
4.12544
4.12891
4.1305
4.13032
4.12832
4.12452
4.11895
4.11164
4.10263
4.09193
4.0796
4.06566
4.05016
4.03314
4.01465
3.99472
3.97341
3.95076
3.92683
3.90167
3.87533
3.84786
3.81932
3.78977
3.75926
3.72785
3.69559
3.66254
3.62877
3.59432
3.55926
3.52365
3.48755
3.45103
3.41416
3.377
3.3396
3.30203
3.26433
3.22659
3.18887
3.15126
3.11387
3.07681
3.04023
3.0043
2.96925
2.93526
2.9025
2.87026
2.83626
0.0274824
0.0617469
0.0792936
0.0917921
0.102179
0.11149
0.120242
0.128734
0.137159
0.145647
0.15429
0.163151
0.172272
0.181684
0.191409
0.201467
0.211874
0.222651
0.233818
0.245397
0.25741
0.269883
0.282841
0.296309
0.31031
0.32487
0.340009
0.355747
0.372105
0.389097
0.406738
0.425041
0.444015
0.46367
0.484014
0.505052
0.526793
0.549243
0.572408
0.596297
0.620917
0.646276
0.672383
0.699246
0.726876
0.755282
0.784478
0.814475
0.845286
0.876927
0.909411
0.942752
0.976964
1.01206
1.04806
1.08496
1.12279
1.16155
1.20125
1.2419
1.28351
1.32608
1.3696
1.4141
1.45955
1.50595
1.5533
1.60159
1.6508
1.70091
1.7519
1.80376
1.85644
1.90992
1.96418
2.01916
2.07483
2.13115
2.18806
2.24552
2.30348
2.36189
2.42067
2.47977
2.53914
2.5987
2.65838
2.71813
2.77786
2.83751
2.897
2.95627
3.01522
3.07379
3.13191
3.18949
3.24645
3.30273
3.35825
3.41293
3.4667
3.51949
3.57123
3.62185
3.67128
3.71946
3.76632
3.8118
3.85585
3.89839
3.93938
3.97877
4.0165
4.05253
4.08682
4.11932
4.15
4.17882
4.20575
4.23077
4.25385
4.27497
4.29411
4.31126
4.32641
4.33955
4.35069
4.35981
4.36694
4.37208
4.37523
4.37641
4.37566
4.37296
4.36833
4.36181
4.35344
4.34325
4.33127
4.31756
4.30214
4.28507
4.26639
4.24615
4.2244
4.20119
4.17657
4.15061
4.12335
4.09486
4.06518
4.03439
4.00254
3.96969
3.9359
3.90123
3.86573
3.82948
3.79253
3.75494
3.71678
3.6781
3.63899
3.59949
3.55969
3.51964
3.4794
3.43903
3.39861
3.35823
3.31798
3.27795
3.23829
3.19914
3.16069
3.12316
3.08673
3.05155
3.01694
2.98097
0.0290022
0.0643438
0.0824174
0.0952849
0.105958
0.115496
0.124422
0.13304
0.141548
0.150082
0.15874
0.167594
0.176696
0.186085
0.195792
0.205843
0.216259
0.227061
0.238271
0.24991
0.262001
0.274568
0.287633
0.30122
0.31535
0.330047
0.34533
0.361218
0.377732
0.394889
0.412704
0.431193
0.450371
0.470248
0.49084
0.512156
0.534208
0.55701
0.580572
0.604906
0.630024
0.655939
0.682664
0.710215
0.738604
0.767847
0.797959
0.828956
0.860856
0.893676
0.927434
0.962146
0.997829
1.0345
1.07217
1.11086
1.15058
1.19135
1.23317
1.27605
1.32
1.36502
1.41113
1.45831
1.50656
1.55588
1.60625
1.65767
1.71011
1.76356
1.81799
1.87337
1.92968
1.98687
2.0449
2.10375
2.16334
2.22365
2.28461
2.34617
2.40826
2.47083
2.53382
2.59714
2.66074
2.72453
2.78846
2.85243
2.91637
2.98021
3.04386
3.10724
3.17027
3.23287
3.29494
3.35642
3.41721
3.47724
3.53642
3.59468
3.65194
3.70811
3.76314
3.81693
3.86943
3.92055
3.97024
4.01843
4.06504
4.11004
4.15334
4.19491
4.23469
4.27263
4.30868
4.3428
4.37497
4.40513
4.43326
4.45933
4.48332
4.5052
4.52497
4.54261
4.5581
4.57145
4.58266
4.59172
4.59866
4.60348
4.60619
4.60682
4.60544
4.60193
4.59639
4.58885
4.57936
4.56795
4.55467
4.53955
4.52265
4.50401
4.48368
4.46172
4.43818
4.41311
4.38659
4.35866
4.32938
4.29882
4.26704
4.2341
4.20006
4.16499
4.12894
4.09199
4.0542
4.01562
3.97631
3.93635
3.8958
3.85472
3.81317
3.77123
3.72896
3.68642
3.64369
3.60083
3.55792
3.51504
3.47229
3.42979
3.38767
3.34608
3.30522
3.26529
3.22647
3.18892
3.15198
3.11398
0.0300673
0.0661476
0.084558
0.0976583
0.108507
0.118181
0.127204
0.135883
0.144419
0.152952
0.161586
0.170399
0.17945
0.188782
0.198431
0.208426
0.218791
0.22955
0.240724
0.252337
0.264411
0.276967
0.290029
0.303619
0.317758
0.332469
0.347769
0.36368
0.380223
0.397419
0.415287
0.433845
0.453112
0.473106
0.493842
0.515337
0.53761
0.560678
0.584556
0.609261
0.634808
0.661214
0.6885
0.716686
0.74579
0.775831
0.806831
0.83881
0.87179
0.905791
0.940834
0.976938
1.01412
1.05241
1.09181
1.13234
1.17402
1.21686
1.26087
1.30607
1.35245
1.40003
1.44879
1.49875
1.5499
1.60222
1.65571
1.71034
1.76609
1.82295
1.88087
1.93984
1.9998
2.06072
2.12255
2.18524
2.24875
2.313
2.37795
2.44353
2.50967
2.5763
2.64336
2.71075
2.77842
2.84627
2.91423
2.98221
3.05013
3.1179
3.18544
3.25266
3.31947
3.38578
3.4515
3.51654
3.58082
3.64425
3.70675
3.76822
3.8286
3.88779
3.94572
4.00231
4.05749
4.11118
4.16332
4.21383
4.26266
4.30973
4.35498
4.39838
4.43985
4.47934
4.51683
4.55225
4.58558
4.61677
4.6458
4.67264
4.69727
4.71966
4.7398
4.75768
4.7733
4.78665
4.79773
4.80655
4.81312
4.81747
4.81961
4.81958
4.81745
4.81303
4.8065
4.79788
4.78722
4.77456
4.75995
4.74343
4.72505
4.70486
4.68292
4.65929
4.63403
4.60719
4.57884
4.54905
4.51786
4.48536
4.4516
4.41666
4.38059
4.34346
4.30534
4.26629
4.22637
4.18565
4.1442
4.10207
4.05933
4.01605
3.97228
3.92811
3.88359
3.8388
3.7938
3.74866
3.70346
3.65829
3.61325
3.56846
3.52406
3.4802
3.43707
3.39487
3.35378
3.31394
3.27474
3.23478
0.0307178
0.0672358
0.0858126
0.0990219
0.109945
0.119667
0.128712
0.13739
0.145905
0.154399
0.162977
0.171719
0.180682
0.189915
0.19946
0.209348
0.219606
0.23026
0.241333
0.252846
0.264822
0.277284
0.290254
0.303755
0.317812
0.332448
0.347684
0.363539
0.380035
0.397194
0.415039
0.433593
0.452879
0.47292
0.49374
0.515363
0.537825
0.561139
0.585324
0.610401
0.636386
0.663291
0.69115
0.719992
0.749843
0.78073
0.812678
0.845712
0.879858
0.915139
0.951578
0.989197
1.02802
1.06806
1.10933
1.15186
1.19567
1.24075
1.28713
1.33481
1.3838
1.43409
1.48569
1.53859
1.59279
1.64825
1.70498
1.76294
1.8221
1.88244
1.94392
2.00651
2.07014
2.13478
2.20038
2.26687
2.3342
2.40229
2.47109
2.54053
2.61052
2.681
2.75187
2.82307
2.89451
2.96609
3.03774
3.10937
3.18088
3.25218
3.32318
3.3938
3.46393
3.53348
3.60236
3.67048
3.73775
3.80407
3.86937
3.93354
3.99651
4.05819
4.1185
4.17737
4.23471
4.29046
4.34453
4.39687
4.44739
4.49605
4.54278
4.58753
4.63023
4.67085
4.70933
4.74564
4.77973
4.81157
4.84113
4.86838
4.8933
4.91588
4.9361
4.95395
4.96942
4.98252
4.99324
5.00161
5.00764
5.01134
5.01275
5.01197
5.00894
5.00353
4.99593
4.98618
4.97432
4.96039
4.94445
4.92654
4.90672
4.88504
4.86156
4.83635
4.80946
4.78097
4.75093
4.71941
4.68648
4.6522
4.61665
4.57989
4.54199
4.50301
4.46303
4.42211
4.38031
4.3377
4.29434
4.2503
4.20563
4.16041
4.1147
4.06856
4.02207
3.97528
3.92827
3.88112
3.83389
3.78669
3.73961
3.69277
3.64631
3.60039
3.55518
3.51089
3.46768
3.42569
3.38437
3.34257
0.0309408
0.0676395
0.0862543
0.0994724
0.110384
0.12008
0.129087
0.137713
0.14616
0.154572
0.163057
0.171703
0.180572
0.189708
0.199149
0.208928
0.219074
0.229612
0.240565
0.251957
0.26381
0.276147
0.28899
0.302365
0.316295
0.330804
0.345913
0.36165
0.378042
0.395119
0.41291
0.431443
0.450747
0.470851
0.491783
0.51357
0.536238
0.559819
0.584337
0.609818
0.636294
0.663782
0.692325
0.721961
0.752718
0.784626
0.817713
0.852012
0.887551
0.924356
0.96245
1.00185
1.04259
1.08467
1.12812
1.17295
1.21917
1.2668
1.31584
1.36629
1.41816
1.47144
1.52613
1.5822
1.63965
1.69845
1.75857
1.81999
1.88266
1.94656
2.01163
2.07782
2.14509
2.21337
2.2826
2.35273
2.42368
2.49538
2.56775
2.64072
2.71421
2.78814
2.86242
2.93696
3.01168
3.08649
3.16128
3.23598
3.31049
3.3847
3.45854
3.5319
3.60469
3.67681
3.74817
3.81867
3.88822
3.95673
4.02411
4.09028
4.15513
4.2186
4.2806
4.34105
4.39988
4.457
4.51235
4.56586
4.61746
4.66708
4.71468
4.76019
4.80357
4.84475
4.8837
4.92038
4.95475
4.98677
5.01642
5.04367
5.06849
5.09089
5.11083
5.12832
5.14334
5.15592
5.16604
5.17373
5.179
5.18189
5.18242
5.18079
5.17669
5.17021
5.1615
5.15058
5.1375
5.12232
5.10508
5.08583
5.06463
5.04155
5.01665
4.98998
4.96161
4.93162
4.90007
4.86702
4.83255
4.79672
4.75961
4.72128
4.68181
4.64125
4.59969
4.55718
4.51379
4.46959
4.42463
4.37898
4.33271
4.28587
4.23853
4.19075
4.1426
4.09415
4.04546
3.99661
3.94767
3.89873
3.8499
3.8013
3.75305
3.70533
3.65829
3.61213
3.567
3.52307
3.47982
3.43638
0.0308823
0.0675711
0.0861243
0.099289
0.110145
0.119778
0.128711
0.137254
0.145609
0.15392
0.162294
0.170812
0.179532
0.188507
0.197775
0.207372
0.21733
0.227675
0.238432
0.249626
0.261281
0.273422
0.286074
0.299264
0.31302
0.327371
0.342347
0.357984
0.374314
0.391369
0.409185
0.427797
0.447238
0.46754
0.488737
0.510864
0.533957
0.558064
0.583203
0.6094
0.63667
0.665057
0.69462
0.725392
0.757414
0.790721
0.825349
0.861334
0.898717
0.937514
0.977743
1.01943
1.06258
1.1072
1.15332
1.20094
1.25007
1.30071
1.35286
1.40651
1.46166
1.51829
1.57638
1.63592
1.69686
1.75918
1.82285
1.88781
1.95403
2.02146
2.09004
2.15971
2.23041
2.30209
2.37466
2.44806
2.52221
2.59705
2.67248
2.74843
2.82481
2.90153
2.97852
3.05568
3.13292
3.21014
3.28726
3.36419
3.44082
3.51707
3.59283
3.66802
3.74254
3.8163
3.88919
3.96113
4.03203
4.10179
4.17033
4.23756
4.30339
4.36774
4.43054
4.4917
4.55115
4.60881
4.66462
4.7185
4.77039
4.82023
4.86797
4.91354
4.95691
4.99801
5.03681
5.07327
5.10734
5.13901
5.16824
5.19501
5.21929
5.24108
5.26037
5.27714
5.2914
5.30315
5.31241
5.31918
5.32349
5.32537
5.32495
5.32229
5.31703
5.30944
5.29957
5.28748
5.27321
5.25681
5.23834
5.21785
5.1954
5.17105
5.14488
5.11693
5.08729
5.05602
5.02319
4.98886
4.95312
4.91603
4.87765
4.83807
4.79734
4.75554
4.71274
4.66899
4.62437
4.57894
4.53275
4.48588
4.43837
4.3903
4.34171
4.29268
4.24326
4.19353
4.14353
4.09336
4.04307
3.99277
3.94254
3.89251
3.84281
3.79358
3.74501
3.69726
3.65049
3.60486
3.55992
3.5151
0.0306866
0.0672575
0.0856278
0.0986369
0.109337
0.11881
0.127576
0.135946
0.144122
0.152248
0.160431
0.168751
0.177271
0.186044
0.195117
0.204519
0.214282
0.224432
0.234998
0.246008
0.257489
0.26947
0.281984
0.295063
0.308742
0.323056
0.338041
0.353736
0.370181
0.387415
0.405485
0.424442
0.444328
0.465174
0.487021
0.509904
0.533849
0.558859
0.585006
0.612361
0.640992
0.670952
0.702271
0.73498
0.769118
0.804715
0.841803
0.880404
0.920531
0.962213
1.00548
1.05035
1.09682
1.14489
1.19454
1.24578
1.2986
1.35299
1.40894
1.46642
1.52541
1.58587
1.64778
1.7111
1.77579
1.84179
1.90907
1.97756
2.04722
2.11798
2.18978
2.26256
2.33625
2.41079
2.48609
2.56208
2.6387
2.71585
2.79347
2.87146
2.94975
3.02825
3.10688
3.18555
3.26417
3.34265
3.4209
3.49884
3.57637
3.65341
3.72985
3.80562
3.88061
3.95474
4.02792
4.10006
4.17107
4.24087
4.30937
4.37647
4.44211
4.50621
4.56868
4.62946
4.68846
4.74563
4.80088
4.85415
4.90539
4.95453
5.00153
5.04632
5.08886
5.1291
5.16701
5.20254
5.23566
5.26634
5.29456
5.32029
5.34351
5.36422
5.38239
5.39804
5.41117
5.42177
5.42985
5.43544
5.43855
5.43924
5.43779
5.43384
5.42737
5.4186
5.40755
5.39429
5.37885
5.36129
5.34168
5.32006
5.29649
5.27105
5.24379
5.21478
5.1841
5.1518
5.11796
5.08265
5.04595
5.00791
4.96861
4.92812
4.8865
4.84383
4.80017
4.75558
4.71012
4.66386
4.61686
4.56917
4.52085
4.47196
4.42256
4.37269
4.32243
4.27182
4.22094
4.16985
4.11862
4.06733
4.01609
3.965
3.91419
3.86381
3.81402
3.76499
3.71687
3.66983
3.62347
3.57755
0.0302832
0.0665808
0.0846619
0.0974381
0.107916
0.11717
0.125722
0.133882
0.141853
0.14978
0.157767
0.165896
0.174232
0.182826
0.191722
0.200958
0.210569
0.220587
0.231044
0.241972
0.253408
0.265389
0.277954
0.291142
0.305
0.319578
0.334936
0.351106
0.368136
0.386073
0.404957
0.424804
0.445648
0.467587
0.490687
0.515012
0.540622
0.567604
0.59599
0.625832
0.657184
0.690091
0.724585
0.760692
0.798438
0.837841
0.878913
0.921659
0.966084
1.01218
1.05996
1.10936
1.16037
1.21298
1.26717
1.32293
1.38022
1.439
1.49925
1.56091
1.62396
1.68833
1.75399
1.82088
1.88895
1.95815
2.02842
2.09969
2.17192
2.24504
2.31899
2.3937