/*--------------------------------*- C++ -*----------------------------------*\
  =========                 |
  \\      /  F ield         | OpenFOAM: The Open Source CFD Toolbox
   \\    /   O peration     | Website:  https://openfoam.org
    \\  /    A nd           | Version:  12
     \\/     M anipulation  |
\*---------------------------------------------------------------------------*/
FoamFile
{
    format      ascii;
    class       volScalarField;
    location    "286";
    object      nut;
}
// * * * * * * * * * * * * * * * * * * * * * * * * * * * * * * * * * * * * * //

dimensions      [0 2 -1 0 0 0 0];

internalField   nonuniform List<scalar> 
12225
(
4.14928e-05
3.93401e-05
3.74838e-05
3.54318e-05
3.37853e-05
3.24192e-05
3.15114e-05
3.09108e-05
3.09171e-05
3.10975e-05
3.15674e-05
3.21105e-05
3.31391e-05
3.38114e-05
3.51042e-05
3.56978e-05
3.73242e-05
3.67444e-05
0.00033221
0.000215179
0.00017927
0.000157678
0.00014621
0.000138209
0.000132761
0.000131631
0.000129529
0.000130045
0.000129064
0.000129423
0.000128671
0.000128546
0.000128082
0.000127415
0.000127376
0.000126518
0.000668674
0.000450659
0.00035576
0.00030983
0.000275291
0.000251093
0.000231724
0.000217267
0.000202704
0.000192111
0.000182642
0.000175209
0.000169394
0.000163695
0.000160315
0.000155601
0.000153828
0.000149927
0.000801678
0.000691655
0.000572565
0.000500047
0.000449396
0.000411972
0.000380801
0.000355992
0.000334032
0.000314779
0.000298353
0.000281725
0.000270332
0.000256103
0.000248236
0.000236222
0.00023046
0.000220548
0.000839622
0.000810182
0.000740718
0.0006764
0.000623947
0.000581372
0.00054589
0.000514551
0.000489538
0.000464436
0.000445882
0.000424094
0.000409966
0.000390847
0.000379937
0.000363172
0.000354561
0.000339654
0.000850344
0.000843275
0.000819554
0.00078652
0.000750786
0.000715876
0.00068577
0.000656131
0.000632561
0.000607528
0.000589014
0.000567271
0.00055231
0.000533142
0.000520832
0.000503815
0.000493399
0.000477637
0.000851579
0.000851018
0.0008433
0.000833474
0.000817118
0.000796948
0.000777877
0.000756738
0.000738907
0.000719157
0.000703546
0.000685642
0.000672146
0.000655961
0.000644349
0.000629602
0.000619592
0.000605282
0.000851582
0.000851815
0.000850039
0.00084746
0.000841403
0.000833751
0.000824825
0.000813436
0.000802815
0.000790478
0.000779723
0.000767554
0.000757441
0.000745811
0.000736571
0.000725579
0.000717213
0.000706132
0.000851673
0.00085153
0.000851016
0.000850343
0.000848875
0.000846171
0.000843027
0.000838306
0.000833405
0.000827365
0.000821222
0.000814781
0.00080842
0.000801542
0.000795261
0.000788448
0.00078221
0.000775319
0.000851754
0.000851386
0.000851043
0.000850633
0.000850247
0.000849368
0.000848405
0.000846781
0.000844957
0.000842532
0.000839926
0.000836804
0.0008338
0.000830162
0.000826981
0.000822943
0.00081992
0.000815328
0.000851784
0.000851358
0.000851012
0.000850613
0.000850329
0.000849905
0.000849526
0.000848929
0.000848303
0.000847394
0.000846467
0.000845179
0.000843993
0.000842356
0.000841001
0.00083904
0.000837649
0.000835374
0.000851788
0.000851359
0.000850995
0.000850605
0.000850292
0.000849938
0.000849646
0.00084928
0.000848955
0.000848505
0.000848099
0.000847509
0.000846999
0.000846246
0.000845644
0.000844724
0.000844062
0.000842981
0.000851786
0.000851363
0.000850985
0.000850604
0.000850269
0.000849926
0.00084963
0.000849313
0.000849042
0.000848729
0.000848462
0.000848127
0.000847844
0.000847467
0.000847157
0.000846727
0.000846388
0.000845904
0.000851783
0.000851364
0.000850978
0.000850602
0.000850256
0.000849916
0.000849607
0.0008493
0.000849022
0.000848741
0.000848488
0.000848224
0.000847989
0.000847735
0.000847508
0.000847258
0.000847033
0.000846783
0.000851781
0.000851364
0.000850972
0.000850598
0.000850246
0.000849908
0.000849591
0.000849286
0.000849
0.000848723
0.000848463
0.000848211
0.000847975
0.000847745
0.000847527
0.000847316
0.000847114
0.000846918
0.00085178
0.000851363
0.000850969
0.000850594
0.000850239
0.000849901
0.00084958
0.000849274
0.000848984
0.000848707
0.000848443
0.000848191
0.000847951
0.000847721
0.000847502
0.000847292
0.000847092
0.0008469
0.000851779
0.000851362
0.000850967
0.000850591
0.000850234
0.000849894
0.000849572
0.000849265
0.000848973
0.000848694
0.000848428
0.000848174
0.000847932
0.000847701
0.00084748
0.000847268
0.000847066
0.000846873
0.000851779
0.000851362
0.000850965
0.000850588
0.00085023
0.00084989
0.000849567
0.000849258
0.000848965
0.000848685
0.000848418
0.000848163
0.000847919
0.000847686
0.000847464
0.000847251
0.000847047
0.000846853
0.000851779
0.000851362
0.000850965
0.000850588
0.000850229
0.000849889
0.000849565
0.000849256
0.000848962
0.000848681
0.000848413
0.000848157
0.000847913
0.000847679
0.000847456
0.000847242
0.000847037
0.000846842
0.000851779
0.000851362
0.000850965
0.000850589
0.000850231
0.000849891
0.000849567
0.000849259
0.000848965
0.000848684
0.000848416
0.000848161
0.000847916
0.000847683
0.000847459
0.000847245
0.000847039
0.000846843
0.000851779
0.000851363
0.000850967
0.000850592
0.000850235
0.000849896
0.000849573
0.000849266
0.000848972
0.000848693
0.000848423
0.000848168
0.000847918
0.000847682
0.00084745
0.00084723
0.000847011
0.000846805
0.000851778
0.000851366
0.000850968
0.000850599
0.00085024
0.000849907
0.00084958
0.000849274
0.000848964
0.000848671
0.000848364
0.000848071
0.000847755
0.000847454
0.000847122
0.00084681
0.000846455
0.000846134
0.000851777
0.000851374
0.000850971
0.000850615
0.00085024
0.000849889
0.000849478
0.000849053
0.000848529
0.000847977
0.0008473
0.000846603
0.000845765
0.000844937
0.000843953
0.000843027
0.000841915
0.000840937
0.000851803
0.000851411
0.000850971
0.000850549
0.00084986
0.000848966
0.000847609
0.000845975
0.000843903
0.000841635
0.000838953
0.000836212
0.000833114
0.000830111
0.00082676
0.000823676
0.000820179
0.000817173
0.000852151
0.000851407
0.000850234
0.000848251
0.00084447
0.000839356
0.00083276
0.000825662
0.000817961
0.00081001
0.000801615
0.000793624
0.000785327
0.000777702
0.000769737
0.000762694
0.000755116
0.000748786
0.000854237
0.000847731
0.000840115
0.000827121
0.000808702
0.000789643
0.000769972
0.00075141
0.000733302
0.000716892
0.00070093
0.000686775
0.000672824
0.000660664
0.00064837
0.000637932
0.000626944
0.00061801
0.000855503
0.000818273
0.000776189
0.000726632
0.000684928
0.000649863
0.000618463
0.000592024
0.000568382
0.000548311
0.000529687
0.000513988
0.000498747
0.000486011
0.000473195
0.000462701
0.000451614
0.000442796
0.000808905
0.000666694
0.0005705
0.000509915
0.000465629
0.000431202
0.000404142
0.000382508
0.000364199
0.00034907
0.000335941
0.000325063
0.000314504
0.000306235
0.000297957
0.000291364
0.000284277
0.000278927
0.000502078
0.000348439
0.000292684
0.000259193
0.000236329
0.000221183
0.000211548
0.000204019
0.000198484
0.000195062
0.000192221
0.00019037
0.000188585
0.00018744
0.000186168
0.000185473
0.000184557
0.000184144
7.27351e-05
7.02244e-05
6.79535e-05
6.56136e-05
6.33826e-05
6.12765e-05
5.9493e-05
5.79575e-05
5.67105e-05
5.57033e-05
5.4978e-05
5.44186e-05
5.41102e-05
5.3882e-05
5.38986e-05
5.39338e-05
5.40925e-05
5.43253e-05
1.66714e-07
4.4778e-06
8.37341e-06
1.18073e-05
1.50966e-05
1.87964e-05
2.31049e-05
2.82729e-05
3.44488e-05
4.16155e-05
4.96444e-05
5.83486e-05
6.75448e-05
7.70616e-05
8.67535e-05
9.6485e-05
0.000106132
0.00011557
0.000124668
0.000133286
0.000141261
0.00014841
0.000154505
0.000159285
0.000162419
0.000163531
0.000162129
0.000157627
0.000149221
0.000135868
2.73412e-05
2.80639e-05
2.95102e-05
3.11089e-05
3.21829e-05
3.40029e-05
3.5951e-05
3.79787e-05
3.89973e-05
4.20945e-05
4.48517e-05
4.67206e-05
4.74618e-05
4.95863e-05
5.02021e-05
5.14504e-05
5.24945e-05
5.36289e-05
5.47281e-05
5.58431e-05
5.6947e-05
5.80529e-05
5.91532e-05
6.02517e-05
6.13463e-05
6.2438e-05
6.35263e-05
6.46112e-05
6.56927e-05
6.67705e-05
6.78446e-05
6.89147e-05
6.99806e-05
7.1042e-05
7.20987e-05
7.31503e-05
7.41963e-05
7.52365e-05
7.62704e-05
7.72977e-05
7.83176e-05
7.933e-05
8.03341e-05
8.13297e-05
8.2316e-05
8.32926e-05
8.42588e-05
8.52144e-05
8.61583e-05
8.70906e-05
8.801e-05
8.89166e-05
8.98093e-05
9.06879e-05
9.15514e-05
9.23996e-05
9.32315e-05
9.40467e-05
9.48442e-05
9.56236e-05
9.63837e-05
9.71236e-05
9.78421e-05
9.85381e-05
9.92104e-05
9.98583e-05
0.000100482
0.000101083
0.000101669
0.00010223
0.00010277
0.000103287
0.000103783
0.000104256
0.000104706
0.000105132
0.000105536
0.000105915
0.000106271
0.000106602
0.000106909
0.000107191
0.000107448
0.000107681
0.000107888
0.00010807
0.000108227
0.000108358
0.000108464
0.000108545
0.0001086
0.00010863
0.000108634
0.000108613
0.000108566
0.000108495
0.000108398
0.000108275
0.000108131
0.000107964
0.000107769
0.000107547
0.000107299
0.000107032
0.000106746
0.000106433
0.000106098
0.00010574
0.000105361
0.000104961
0.00010454
0.000104098
0.000103637
0.000103157
0.000102658
0.000102141
0.000101606
0.000101053
0.000100485
9.99e-05
9.93e-05
9.86853e-05
9.80566e-05
9.74144e-05
9.67595e-05
9.60925e-05
9.54142e-05
9.47251e-05
9.40263e-05
9.33187e-05
9.2604e-05
9.18859e-05
9.11858e-05
9.06545e-05
9.0239e-05
8.98302e-05
8.94185e-05
8.90028e-05
8.85835e-05
8.81609e-05
8.77352e-05
8.73064e-05
8.68741e-05
8.64372e-05
8.59934e-05
8.55374e-05
8.50586e-05
8.45276e-05
8.38844e-05
8.19652e-05
8.61745e-07
2.42926e-05
5.53148e-05
7.68842e-05
9.05506e-05
9.96526e-05
0.000106993
0.000114197
0.000122078
0.000130907
0.000140657
0.00015116
0.000162203
0.000173578
0.000185101
0.000196602
0.000207917
0.000218871
0.000229255
0.000238802
0.000247158
0.000253844
0.000258222
0.000259469
0.000256585
0.000248485
0.000234207
0.000213308
0.000186377
0.000155525
0.00012462
0.000127443
0.000133826
0.000141302
0.000149939
0.00016125
0.000175049
0.00018924
0.000203305
0.000219274
0.000233231
0.000245941
0.000265202
0.00027187
0.000278079
0.000284982
0.000292507
0.000300218
0.000308206
0.000316292
0.000324515
0.000332822
0.000341224
0.000349705
0.000358268
0.00036691
0.000375632
0.000384433
0.000393316
0.000402281
0.000411329
0.00042046
0.000429676
0.000438976
0.00044836
0.000457827
0.000467376
0.000477006
0.000486714
0.000496499
0.000506357
0.000516285
0.000526279
0.000536336
0.000546451
0.000556619
0.000566835
0.000577093
0.000587389
0.000597716
0.000608068
0.00061844
0.000628824
0.000639216
0.000649609
0.000659996
0.000670372
0.000680732
0.000691071
0.000701384
0.000711664
0.000721904
0.000732089
0.000742199
0.000752201
0.000762036
0.000771597
0.000780704
0.000789047
0.000797372
0.000805539
0.00081358
0.00082148
0.000829239
0.000836849
0.000844305
0.0008516
0.00085873
0.00086569
0.000872474
0.000879079
0.000885498
0.000891729
0.000897766
0.000903605
0.000909243
0.000914676
0.0009199
0.000924912
0.00092971
0.00093429
0.000938651
0.000942788
0.0009467
0.000950386
0.000953845
0.000957077
0.00096008
0.000962843
0.0009654
0.000967784
0.000969845
0.000971534
0.000973039
0.000974479
0.000975613
0.000976501
0.000977158
0.000977586
0.000977786
0.000977761
0.000977514
0.000977047
0.000976364
0.00097547
0.000974366
0.000973059
0.00097155
0.000969846
0.00096795
0.000965868
0.000963605
0.000961165
0.000958555
0.00095578
0.000952845
0.000949756
0.000946517
0.000943133
0.000939605
0.00093592
0.000932009
0.000927508
0.000921195
0.000913745
0.000905921
0.000897937
0.000889857
0.000881711
0.000873511
0.000865268
0.000856986
0.000848665
0.000840297
0.000831861
0.000823304
0.000814476
0.000805133
0.000793767
0.000763626
1.85035e-06
4.08333e-05
8.89003e-05
0.000125295
0.000151556
0.000170534
0.000184925
0.000196869
0.000207843
0.000218728
0.000229951
0.000241636
0.000253743
0.000266155
0.000278729
0.000291314
0.000303757
0.000315887
0.000327502
0.000338343
0.000348067
0.000356217
0.000362209
0.00036534
0.000364865
0.000360178
0.000351105
0.000338291
0.000323576
0.000310279
0.000303351
0.000312559
0.000326616
0.000343027
0.000361497
0.000381946
0.000403416
0.00042483
0.000445987
0.000466712
0.000486535
0.000506896
0.00052589
0.000541507
0.00055702
0.000572718
0.000588732
0.000604959
0.00062141
0.00063803
0.000654816
0.000671751
0.000688832
0.000706056
0.000723421
0.000740929
0.00075858
0.000776375
0.000794314
0.000812398
0.000830627
0.000849004
0.000867527
0.000886195
0.000905005
0.000923954
0.00094304
0.000962256
0.000981599
0.00100106
0.00102064
0.00104032
0.0010601
0.00107997
0.00109992
0.00111994
0.00114002
0.00116015
0.00118032
0.00120051
0.00122071
0.00124092
0.00126112
0.00128129
0.00130143
0.00132152
0.00134154
0.00136149
0.00138134
0.00140109
0.00142071
0.00144018
0.00145947
0.00147854
0.00149733
0.00151578
0.00153381
0.00155133
0.0015684
0.00158525
0.00160182
0.00161811
0.00163411
0.00164981
0.00166519
0.00168024
0.00169495
0.00170932
0.00172332
0.00173695
0.0017502
0.00176306
0.00177552
0.00178758
0.00179922
0.00181043
0.00182122
0.00183157
0.00184147
0.00185093
0.00185993
0.00186847
0.00187655
0.00188416
0.00189129
0.00189796
0.00190414
0.00190985
0.00191509
0.00191987
0.00192428
0.0019281
0.00193115
0.00193383
0.00193622
0.00193807
0.00193942
0.00194029
0.00194069
0.00194062
0.00194009
0.00193911
0.00193767
0.00193579
0.00193348
0.00193074
0.00192758
0.001924
0.00192003
0.00191566
0.00191092
0.0019058
0.00190032
0.00189449
0.00188832
0.00188183
0.00187502
0.00186791
0.0018605
0.0018528
0.00184479
0.00183637
0.00182716
0.00181626
0.00180402
0.0017911
0.00177781
0.00176428
0.00175056
0.0017367
0.00172271
0.00170861
0.0016944
0.00168007
0.00166558
0.00165081
0.00163551
0.00161894
0.0015983
0.00155409
2.99631e-06
5.36334e-05
0.000114829
0.000162397
0.00019735
0.000223206
0.000243023
0.000259182
0.000273395
0.000286783
0.000299991
0.000313331
0.000326895
0.000340661
0.000354549
0.000368457
0.000382277
0.000395893
0.000409179
0.000421986
0.000434131
0.000445387
0.000455477
0.00046409
0.000470931
0.000475824
0.000478878
0.000480705
0.000482619
0.000486668
0.000495243
0.000509908
0.000527727
0.000547428
0.000568564
0.00059079
0.000613635
0.000636726
0.000659928
0.00068321
0.00070648
0.000729824
0.000752783
0.000775369
0.000797986
0.000820738
0.000843682
0.00086682
0.000890158
0.000913688
0.000937409
0.000961317
0.000985411
0.00100969
0.00103416
0.00105881
0.00108366
0.00110871
0.00113394
0.00115937
0.00118499
0.00121081
0.00123681
0.001263
0.00128936
0.00131591
0.00134262
0.0013695
0.00139653
0.0014237
0.00145101
0.00147844
0.00150599
0.00153363
0.00156136
0.00158916
0.00161701
0.00164491
0.00167283
0.00170076
0.00172868
0.00175657
0.00178443
0.00181222
0.00183993
0.00186754
0.00189503
0.00192238
0.00194957
0.00197657
0.00200336
0.00202991
0.00205617
0.00208211
0.00210769
0.00213286
0.00215754
0.00218176
0.00220557
0.00222901
0.00225208
0.00227476
0.00229703
0.00231887
0.00234026
0.0023612
0.00238167
0.00240164
0.00242112
0.00244007
0.0024585
0.00247639
0.00249372
0.00251048
0.00252667
0.00254227
0.00255728
0.00257167
0.00258546
0.00259862
0.00261115
0.00262304
0.00263429
0.00264489
0.00265483
0.00266412
0.00267276
0.00268073
0.00268804
0.00269479
0.00270102
0.00270627
0.0027106
0.00271451
0.00271784
0.00272048
0.00272244
0.00272374
0.00272439
0.00272439
0.00272376
0.00272249
0.0027206
0.00271809
0.00271499
0.00271129
0.002707
0.00270215
0.00269673
0.00269078
0.00268428
0.00267727
0.00266975
0.00266175
0.00265327
0.00264432
0.00263494
0.00262512
0.00261489
0.00260425
0.00259318
0.0025816
0.00256922
0.00255551
0.00254061
0.00252493
0.00250872
0.00249215
0.00247529
0.00245819
0.00244089
0.00242342
0.00240579
0.002388
0.00237001
0.00235177
0.00233289
0.00231242
0.00228709
0.00224068
4.15665e-06
6.44348e-05
0.000136616
0.000193472
0.000236056
0.000267958
0.00029255
0.00031245
0.000329576
0.000345243
0.000360275
0.00037514
0.00039006
0.000405107
0.000420273
0.000435514
0.000450773
0.000465992
0.000481116
0.000496091
0.000510864
0.00052538
0.00053958
0.000553409
0.000566832
0.000579863
0.000592623
0.000605417
0.000618817
0.000633662
0.000650739
0.000670249
0.000691509
0.00071405
0.000737619
0.000762033
0.000787128
0.000812791
0.000838989
0.000865724
0.000892951
0.000920562
0.000948369
0.000976095
0.00100396
0.00103201
0.00106026
0.00108872
0.00111739
0.00114628
0.00117538
0.0012047
0.00123424
0.00126398
0.00129394
0.00132412
0.00135452
0.00138515
0.001416
0.00144707
0.00147836
0.00150987
0.00154159
0.00157351
0.00160563
0.00163794
0.00167043
0.00170309
0.00173591
0.00176888
0.00180198
0.00183521
0.00186853
0.00190195
0.00193543
0.00196898
0.00200256
0.00203615
0.00206975
0.00210333
0.00213686
0.00217033
0.00220372
0.00223701
0.00227017
0.00230317
0.00233601
0.00236865
0.00240106
0.00243323
0.00246511
0.00249669
0.00252793
0.00255879
0.00258926
0.00261929
0.0026489
0.00267805
0.00270676
0.00273503
0.00276285
0.00279021
0.00281707
0.00284342
0.00286924
0.00289452
0.00291923
0.00294337
0.00296691
0.00298983
0.00301213
0.00303379
0.00305479
0.00307512
0.00309477
0.00311373
0.00313198
0.00314951
0.00316632
0.00318239
0.00319771
0.00321229
0.0032261
0.00323914
0.00325142
0.00326291
0.00327363
0.00328358
0.00329276
0.00330138
0.00330911
0.00331582
0.00332149
0.00332673
0.00333116
0.00333479
0.00333763
0.00333969
0.00334098
0.00334149
0.00334125
0.00334026
0.00333853
0.00333607
0.00333289
0.003329
0.00332441
0.00331913
0.00331319
0.00330659
0.00329935
0.00329147
0.00328299
0.00327391
0.00326426
0.00325404
0.00324328
0.00323199
0.00322019
0.00320789
0.00319507
0.00318168
0.00316754
0.00315237
0.00313618
0.00311921
0.00310164
0.00308361
0.00306521
0.0030465
0.00302752
0.00300832
0.00298892
0.00296932
0.00294951
0.00292938
0.00290862
0.00288625
0.00285907
0.00281507
5.26998e-06
7.35506e-05
0.000155003
0.000219871
0.000269284
0.000306704
0.000335711
0.000359109
0.00037899
0.000396832
0.00041362
0.000429964
0.000446208
0.000462523
0.000478979
0.000495589
0.000512345
0.000529235
0.000546248
0.000563383
0.000580647
0.000598057
0.000615642
0.000633438
0.000651501
0.000669901
0.000688741
0.000708169
0.000728403
0.000749727
0.000772371
0.000796366
0.000821537
0.000847709
0.000874749
0.000902553
0.000931036
0.000960141
0.000989831
0.00102009
0.00105086
0.00108204
0.00111353
0.00114523
0.00117716
0.00120931
0.00124169
0.00127429
0.00130711
0.00134015
0.00137343
0.00140694
0.00144067
0.00147465
0.00150887
0.00154332
0.001578
0.00161291
0.00164803
0.00168338
0.00171894
0.0017547
0.00179067
0.00182684
0.0018632
0.00189973
0.00193643
0.00197329
0.00201029
0.00204743
0.00208468
0.00212203
0.00215947
0.00219698
0.00223454
0.00227213
0.00230974
0.00234734
0.00238492
0.00242246
0.00245993
0.00249731
0.00253458
0.00257172
0.00260871
0.00264552
0.00268212
0.00271849
0.00275461
0.00279046
0.00282599
0.00286119
0.00289603
0.00293048
0.00296452
0.00299812
0.00303128
0.00306398
0.0030962
0.00312795
0.00315919
0.00318992
0.00322011
0.00324974
0.00327879
0.00330725
0.00333509
0.00336229
0.00338884
0.00341472
0.00343991
0.0034644
0.00348818
0.00351122
0.00353351
0.00355505
0.00357581
0.00359579
0.00361497
0.00363335
0.00365092
0.00366765
0.00368356
0.00369862
0.00371284
0.0037262
0.00373872
0.00375037
0.00376129
0.0037715
0.00378064
0.00378872
0.00379583
0.00380234
0.00380796
0.00381271
0.00381658
0.0038196
0.00382176
0.00382308
0.00382357
0.00382322
0.00382206
0.0038201
0.00381733
0.00381378
0.00380946
0.00380438
0.00379855
0.00379198
0.0037847
0.00377671
0.00376804
0.00375869
0.0037487
0.00373806
0.00372681
0.00371496
0.00370253
0.00368952
0.00367594
0.00366175
0.00364685
0.00363109
0.00361445
0.00359707
0.00357905
0.00356052
0.00354156
0.00352223
0.00350258
0.00348266
0.00346252
0.00344218
0.00342163
0.00340082
0.00337948
0.00335669
0.00332965
0.00328974
6.29492e-06
8.11167e-05
0.000170321
0.000242152
0.000297711
0.000340237
0.000373421
0.000400197
0.000422785
0.000442801
0.000461367
0.000479222
0.000496827
0.000514448
0.000532231
0.00055025
0.000568543
0.000587132
0.00060604
0.000625289
0.000644911
0.000664946
0.000685443
0.000706458
0.000728054
0.000750301
0.000773267
0.000797031
0.000821676
0.000847289
0.000873933
0.000901599
0.00093022
0.000959709
0.000989981
0.00102096
0.00105258
0.00108478
0.00111752
0.00115077
0.00118448
0.00121858
0.00125302
0.00128775
0.00132274
0.00135797
0.00139344
0.00142914
0.00146506
0.00150121
0.00153758
0.00157419
0.00161101
0.00164807
0.00168535
0.00172285
0.00176058
0.00179851
0.00183666
0.00187501
0.00191357
0.00195232
0.00199127
0.00203039
0.00206969
0.00210915
0.00214876
0.00218852
0.00222841
0.00226841
0.00230851
0.0023487
0.00238897
0.00242928
0.00246964
0.00251002
0.00255039
0.00259075
0.00263107
0.00267133
0.00271152
0.0027516
0.00279156
0.00283138
0.00287102
0.00291048
0.00294972
0.00298872
0.00302746
0.0030659
0.00310403
0.00314182
0.00317925
0.00321628
0.0032529
0.00328909
0.00332484
0.00336011
0.0033949
0.00342918
0.00346295
0.00349618
0.00352884
0.00356092
0.0035924
0.00362325
0.00365346
0.003683
0.00371186
0.00374002
0.00376746
0.00379416
0.00382011
0.00384529
0.00386969
0.0038933
0.00391609
0.00393805
0.00395918
0.00397947
0.00399889
0.00401745
0.00403513
0.00405193
0.00406783
0.00408283
0.00409694
0.00411015
0.00412268
0.00413422
0.00414477
0.00415419
0.00416274
0.00417052
0.00417736
0.00418328
0.00418828
0.00419238
0.00419557
0.00419788
0.0041993
0.00419985
0.00419953
0.00419836
0.00419634
0.00419348
0.0041898
0.00418532
0.00418003
0.00417396
0.00416712
0.00415953
0.00415119
0.00414214
0.00413238
0.00412192
0.0041108
0.00409902
0.00408661
0.00407357
0.00405991
0.00404562
0.00403063
0.00401489
0.00399836
0.00398111
0.00396323
0.0039448
0.00392589
0.00390657
0.0038869
0.00386693
0.00384671
0.0038263
0.00380573
0.00378496
0.00376379
0.00374145
0.00371557
0.00367977
7.20198e-06
8.72437e-05
0.000182822
0.000260658
0.000321723
0.000368976
0.000406134
0.000436203
0.000461493
0.000483725
0.000504133
0.000523568
0.000542593
0.000561565
0.000580703
0.000600139
0.000619953
0.0006402
0.000660919
0.000682146
0.000703918
0.000726277
0.000749267
0.000772939
0.000797342
0.000822538
0.000848557
0.000875429
0.000903184
0.000931842
0.000961404
0.00099185
0.00102313
0.00105519
0.00108796
0.00112138
0.00115539
0.00118993
0.00122497
0.00126046
0.00129636
0.00133264
0.00136925
0.00140616
0.00144334
0.00148077
0.00151843
0.00155631
0.00159441
0.00163272
0.00167124
0.00170996
0.0017489
0.00178804
0.00182738
0.00186693
0.00190667
0.00194661
0.00198674
0.00202706
0.00206756
0.00210824
0.00214909
0.0021901
0.00223127
0.00227259
0.00231405
0.00235564
0.00239734
0.00243915
0.00248106
0.00252304
0.00256509
0.00260719
0.00264933
0.00269148
0.00273364
0.00277577
0.00281787
0.00285992
0.00290188
0.00294376
0.00298551
0.00302713
0.00306859
0.00310986
0.00315092
0.00319175
0.00323233
0.00327263
0.00331262
0.00335229
0.0033916
0.00343054
0.00346908
0.0035072
0.00354488
0.00358209
0.00361883
0.00365506
0.00369076
0.00372593
0.00376052
0.00379452
0.00382791
0.00386067
0.00389277
0.00392419
0.00395492
0.00398494
0.00401422
0.00404274
0.0040705
0.00409747
0.00412364
0.00414899
0.00417351
0.00419718
0.00421999
0.00424193
0.00426299
0.00428315
0.00430241
0.00432076
0.00433819
0.00435469
0.00437025
0.00438497
0.00439889
0.00441174
0.00442366
0.00443443
0.00444438
0.00445342
0.00446151
0.00446865
0.00447484
0.00448009
0.00448442
0.00448783
0.00449033
0.00449193
0.00449263
0.00449244
0.00449138
0.00448946
0.00448668
0.00448306
0.00447861
0.00447335
0.00446728
0.00446043
0.0044528
0.00444441
0.00443528
0.00442543
0.00441486
0.00440359
0.00439166
0.00437905
0.0043658
0.00435188
0.00433729
0.00432198
0.00430594
0.00428921
0.00427185
0.00425391
0.00423546
0.00421657
0.00419729
0.00417769
0.00415784
0.00413781
0.00411764
0.00409736
0.00407682
0.0040554
0.00403117
0.00399982
7.97282e-06
9.20407e-05
0.000192723
0.000275665
0.00034161
0.000393205
0.000434126
0.000467396
0.000495377
0.000519863
0.000542175
0.000563254
0.000583752
0.000604106
0.000624599
0.000645414
0.000666674
0.00068848
0.000710871
0.000733876
0.000757525
0.000781853
0.000806887
0.00083265
0.000859146
0.000886453
0.000914607
0.000943624
0.000973505
0.00100424
0.00103582
0.0010682
0.00110136
0.00113524
0.00116978
0.00120494
0.00124065
0.00127687
0.00131355
0.00135064
0.00138809
0.00142579
0.00146377
0.00150205
0.00154062
0.00157944
0.00161847
0.0016577
0.00169711
0.0017367
0.00177648
0.00181643
0.00185657
0.00189688
0.00193737
0.00197803
0.00201887
0.00205988
0.00210106
0.0021424
0.00218391
0.00222558
0.00226741
0.00230939
0.00235151
0.00239378
0.00243619
0.00247872
0.00252136
0.00256412
0.00260698
0.00264992
0.00269294
0.00273603
0.00277916
0.00282233
0.00286551
0.0029087
0.00295187
0.00299502
0.00303811
0.00308113
0.00312406
0.00316687
0.00320955
0.00325208
0.00329442
0.00333656
0.00337848
0.00342014
0.00346153
0.00350261
0.00354337
0.00358378
0.00362382
0.00366346
0.00370268
0.00374145
0.00377975
0.00381756
0.00385486
0.00389162
0.00392782
0.00396344
0.00399844
0.00403281
0.00406653
0.00409957
0.00413192
0.00416354
0.00419443
0.00422456
0.00425391
0.00428246
0.00431021
0.00433713
0.0043632
0.00438842
0.00441276
0.00443621
0.00445877
0.00448042
0.00450116
0.00452096
0.00453982
0.00455774
0.0045747
0.00459086
0.00460605
0.00462025
0.00463349
0.00464565
0.00465697
0.0046673
0.00467666
0.00468504
0.00469247
0.00469895
0.00470449
0.00470909
0.00471277
0.00471552
0.00471736
0.00471831
0.00471836
0.00471753
0.00471583
0.00471328
0.00470987
0.00470563
0.00470057
0.00469471
0.00468804
0.00468059
0.00467238
0.00466341
0.0046537
0.00464328
0.00463214
0.00462031
0.0046078
0.00459462
0.00458075
0.00456618
0.00455092
0.00453497
0.00451839
0.00450122
0.00448351
0.00446533
0.00444674
0.00442781
0.00440862
0.00438925
0.00436978
0.00435026
0.00433061
0.00431033
0.00428793
0.00426089
8.59743e-06
9.56137e-05
0.000200221
0.000287497
0.000357611
0.000413164
0.000457614
0.000493962
0.000524591
0.000551338
0.000575586
0.000598343
0.000620339
0.000642098
0.000663931
0.00068602
0.000708476
0.000731329
0.000754789
0.00077894
0.000803827
0.000829481
0.000855925
0.000883183
0.000911286
0.000940239
0.00097004
0.00100068
0.00103213
0.00106437
0.00109736
0.00113107
0.00116547
0.0012005
0.00123612
0.00127228
0.00130893
0.00134602
0.00138351
0.00142138
0.00145959
0.00149814
0.00153699
0.00157608
0.00161533
0.00165478
0.00169439
0.00173414
0.00177403
0.00181406
0.00185423
0.00189455
0.00193501
0.00197561
0.00201637
0.00205727
0.00209833
0.00213953
0.00218089
0.00222241
0.00226408
0.0023059
0.00234789
0.00239003
0.00243232
0.00247476
0.00251736
0.00256009
0.00260297
0.00264598
0.00268912
0.00273238
0.00277574
0.00281921
0.00286276
0.00290639
0.00295008
0.00299381
0.00303757
0.00308135
0.00312512
0.00316887
0.00321257
0.0032562
0.00329974
0.00334318
0.00338648
0.00342961
0.00347257
0.00351531
0.00355782
0.00360006
0.00364202
0.00368366
0.00372496
0.0037659
0.00380644
0.00384656
0.00388623
0.00392543
0.00396414
0.00400233
0.00403996
0.00407702
0.00411349
0.00414933
0.00418452
0.00421905
0.00425288
0.00428599
0.00431837
0.00434998
0.00438082
0.00441087
0.0044401
0.00446849
0.00449604
0.00452272
0.00454852
0.00457343
0.00459743
0.00462051
0.00464266
0.00466388
0.00468414
0.00470345
0.00472182
0.0047393
0.0047558
0.00477135
0.00478593
0.00479951
0.00481219
0.00482384
0.00483449
0.00484417
0.00485289
0.00486065
0.00486745
0.00487332
0.00487825
0.00488226
0.00488535
0.00488753
0.00488881
0.00488921
0.00488873
0.00488738
0.00488518
0.00488214
0.00487826
0.00487356
0.00486806
0.00486176
0.00485468
0.00484682
0.00483821
0.00482886
0.00481878
0.00480799
0.00479649
0.00478429
0.00477141
0.00475783
0.00474356
0.00472861
0.00471302
0.00469682
0.00468007
0.00466282
0.00464513
0.00462708
0.00460876
0.00459025
0.00457167
0.00455308
0.00453446
0.00451542
0.00449481
0.00447127
9.07397e-06
9.80875e-05
0.000205553
0.000296393
0.000370027
0.000429108
0.000476811
0.000516071
0.000549256
0.000578222
0.000604412
0.000628816
0.000652139
0.000674823
0.000697412
0.000720244
0.000743541
0.000767491
0.000792177
0.000817586
0.000843737
0.000870652
0.000898348
0.00092684
0.000956131
0.000986204
0.00101703
0.00104858
0.00108086
0.00111383
0.00114748
0.00118177
0.00121665
0.00125209
0.00128804
0.00132446
0.0013613
0.00139852
0.0014361
0.00147398
0.00151215
0.00155057
0.00158921
0.00162804
0.00166715
0.00170647
0.00174589
0.00178534
0.00182486
0.00186446
0.00190416
0.00194396
0.00198387
0.0020239
0.00206406
0.00210435
0.00214479
0.00218537
0.00222611
0.00226701
0.00230807
0.00234932
0.00239074
0.00243234
0.00247414
0.00251612
0.0025583
0.00260067
0.00264322
0.00268597
0.0027289
0.002772
0.00281528
0.00285872
0.00290231
0.00294604
0.0029899
0.00303387
0.00307794
0.00312208
0.00316629
0.00321053
0.0032548
0.00329905
0.00334328
0.00338746
0.00343156
0.00347555
0.00351941
0.00356311
0.00360662
0.00364992
0.00369297
0.00373574
0.00377822
0.00382036
0.00386213
0.00390352
0.00394449
0.00398501
0.00402505
0.00406459
0.0041036
0.00414206
0.00417992
0.00421718
0.0042538
0.00428975
0.00432502
0.00435957
0.0043934
0.00442647
0.00445876
0.00449025
0.00452093
0.00455078
0.00457977
0.00460789
0.00463513
0.00466147
0.0046869
0.00471141
0.00473498
0.0047576
0.00477926
0.00479997
0.00481973
0.00483854
0.00485638
0.00487331
0.00488927
0.00490426
0.00491837
0.00493137
0.00494335
0.00495437
0.00496442
0.00497352
0.00498167
0.00498887
0.00499514
0.00500048
0.00500491
0.00500842
0.00501105
0.00501278
0.00501363
0.00501362
0.00501276
0.00501105
0.0050085
0.00500514
0.00500096
0.00499598
0.00499021
0.00498365
0.00497634
0.00496826
0.00495944
0.00494989
0.00493962
0.00492863
0.00491695
0.00490456
0.00489148
0.00487771
0.00486329
0.00484825
0.00483263
0.00481648
0.00479987
0.00478287
0.00476558
0.00474809
0.00473053
0.00471298
0.00469547
0.00467771
0.00465879
0.00463816
9.40835e-06
9.96026e-05
0.000208959
0.000302568
0.000379134
0.000441296
0.000491939
0.000533915
0.000569489
0.000600406
0.00062795
0.000653435
0.00067776
0.000701648
0.000725508
0.000749566
0.000774016
0.000798989
0.000824507
0.000850666
0.000877516
0.000905083
0.000933381
0.000962411
0.000992167
0.00102263
0.00105376
0.00108554
0.00111795
0.00115096
0.00118455
0.00121867
0.0012533
0.00128839
0.00132391
0.00135979
0.00139602
0.00143256
0.00146937
0.00150643
0.00154369
0.00158108
0.0016187
0.0016566
0.0016948
0.00173303
0.00177131
0.0018096
0.00184784
0.0018861
0.00192441
0.0019628
0.00200129
0.00203988