/*--------------------------------*- C++ -*----------------------------------*\
  =========                 |
  \\      /  F ield         | OpenFOAM: The Open Source CFD Toolbox
   \\    /   O peration     | Website:  https://openfoam.org
    \\  /    A nd           | Version:  12
     \\/     M anipulation  |
\*---------------------------------------------------------------------------*/
FoamFile
{
    format      ascii;
    class       volScalarField;
    location    "286";
    object      p;
}
// * * * * * * * * * * * * * * * * * * * * * * * * * * * * * * * * * * * * * //

dimensions      [0 2 -2 0 0 0 0];

internalField   nonuniform List<scalar> 
12225
(
-1.336
-3.52461
-4.62472
-4.94552
-5.12701
-5.29632
-5.4282
-5.52384
-5.60107
-5.66925
-5.73025
-5.78643
-5.83795
-5.88668
-5.93319
-5.97381
-6.02487
-6.00857
-4.49942
-5.26792
-5.42847
-5.33637
-5.32405
-5.39218
-5.47009
-5.5363
-5.59653
-5.65474
-5.71035
-5.76253
-5.81208
-5.8594
-5.90559
-5.94784
-5.9963
-6.03435
-4.90056
-4.8856
-5.01304
-5.09155
-5.18665
-5.30708
-5.41467
-5.49997
-5.57239
-5.63849
-5.69956
-5.7557
-5.80844
-5.85822
-5.90663
-5.95184
-6.00266
-6.04788
-4.77862
-4.72175
-4.96344
-5.1219
-5.22383
-5.33028
-5.42833
-5.50881
-5.57812
-5.64193
-5.7014
-5.75657
-5.80864
-5.85806
-5.90621
-5.95245
-6.00191
-6.05011
-4.76826
-4.79274
-5.02089
-5.16258
-5.24639
-5.33868
-5.43024
-5.50837
-5.57646
-5.63936
-5.69832
-5.75335
-5.80544
-5.8551
-5.90353
-5.95071
-5.99955
-6.04907
-4.8262
-4.87519
-5.04955
-5.17358
-5.25528
-5.34333
-5.43169
-5.50859
-5.57606
-5.63839
-5.69694
-5.7518
-5.8038
-5.85352
-5.90195
-5.94939
-5.99756
-6.04651
-4.88651
-4.93079
-5.06606
-5.1825
-5.26641
-5.35077
-5.43497
-5.50997
-5.57651
-5.63808
-5.69602
-5.75055
-5.8023
-5.85189
-5.90011
-5.94738
-5.99472
-6.0423
-4.94
-4.97768
-5.08772
-5.19612
-5.27927
-5.35907
-5.43874
-5.51155
-5.577
-5.6377
-5.69494
-5.74902
-5.80044
-5.84976
-5.89762
-5.94442
-5.99077
-6.0367
-4.98968
-5.02285
-5.11384
-5.21189
-5.2921
-5.36765
-5.44303
-5.51344
-5.57759
-5.63728
-5.69371
-5.74721
-5.79815
-5.84704
-5.89436
-5.94044
-5.98566
-6.02988
-5.03667
-5.06594
-5.14152
-5.22882
-5.30513
-5.37682
-5.44813
-5.51586
-5.57844
-5.63697
-5.69243
-5.74517
-5.79548
-5.84375
-5.89036
-5.93554
-5.97951
-6.02206
-5.08089
-5.1064
-5.16965
-5.24689
-5.31866
-5.3866
-5.45398
-5.51885
-5.57964
-5.63682
-5.69117
-5.743
-5.79251
-5.83999
-5.88572
-5.92987
-5.97254
-6.01349
-5.11882
-5.14118
-5.19541
-5.26429
-5.33148
-5.39596
-5.4599
-5.52208
-5.58104
-5.63687
-5.69007
-5.74091
-5.78956
-5.83619
-5.88101
-5.92411
-5.96558
-6.00514
-5.15382
-5.17356
-5.22041
-5.28183
-5.34437
-5.40543
-5.46611
-5.52562
-5.58267
-5.63704
-5.68902
-5.7388
-5.78648
-5.83217
-5.87601
-5.91805
-5.95833
-5.9966
-5.19048
-5.20768
-5.24771
-5.30174
-5.35909
-5.41629
-5.47345
-5.52996
-5.58475
-5.63736
-5.68785
-5.73631
-5.78279
-5.82733
-5.86999
-5.91079
-5.94974
-5.98665
-5.22751
-5.2423
-5.2763
-5.3234
-5.37528
-5.42827
-5.48171
-5.53501
-5.58722
-5.63776
-5.68648
-5.73337
-5.7784
-5.82156
-5.86285
-5.90225
-5.93979
-5.97529
-5.26296
-5.27559
-5.30452
-5.34546
-5.392
-5.44068
-5.49037
-5.54036
-5.58979
-5.63802
-5.68475
-5.72984
-5.77321
-5.8148
-5.85457
-5.89248
-5.92853
-5.96263
-5.29391
-5.30478
-5.32972
-5.36564
-5.40747
-5.45213
-5.4983
-5.54512
-5.59179
-5.63764
-5.68226
-5.72545
-5.76705
-5.80696
-5.84513
-5.88151
-5.91611
-5.94885
-5.316
-5.32565
-5.34788
-5.3803
-5.41868
-5.46024
-5.50357
-5.54779
-5.59208
-5.63579
-5.67846
-5.71983
-5.75972
-5.79803
-5.83466
-5.86959
-5.90281
-5.93429
-5.32235
-5.33149
-5.35268
-5.38377
-5.42078
-5.46096
-5.50288
-5.54566
-5.58854
-5.63086
-5.67216
-5.71217
-5.75073
-5.78774
-5.82312
-5.85686
-5.88895
-5.91942
-5.30588
-5.31563
-5.33819
-5.37121
-5.41012
-5.4517
-5.49452
-5.53788
-5.58106
-5.62342
-5.66454
-5.70421
-5.74231
-5.77877
-5.81356
-5.84667
-5.87813
-5.90799
-5.27879
-5.28957
-5.3148
-5.35175
-5.39443
-5.43882
-5.48377
-5.52884
-5.57329
-5.61644
-5.658
-5.69787
-5.73601
-5.77238
-5.80698
-5.83986
-5.87104
-5.90063
-5.24341
-5.25521
-5.28452
-5.32803
-5.37621
-5.42408
-5.47175
-5.51931
-5.56569
-5.61009
-5.65241
-5.69276
-5.73116
-5.76762
-5.8022
-5.83497
-5.86601
-5.89542
-5.20275
-5.21463
-5.24903
-5.30223
-5.35768
-5.40952
-5.46027
-5.51055
-5.5589
-5.60459
-5.64782
-5.68882
-5.72761
-5.76428
-5.79893
-5.83169
-5.86268
-5.89203
-5.15899
-5.16993
-5.21165
-5.27599
-5.33808
-5.39463
-5.45012
-5.50382
-5.55392
-5.60056
-5.6445
-5.686
-5.72508
-5.76185
-5.79652
-5.82925
-5.86017
-5.88942
-5.11205
-5.11747
-5.18007
-5.2582
-5.32005
-5.37818
-5.43919
-5.49739
-5.54975
-5.59764
-5.64248
-5.68457
-5.72393
-5.7608
-5.79545
-5.82811
-5.85895
-5.88817
-5.06876
-5.03227
-5.14175
-5.25266
-5.31481
-5.36998
-5.43205
-5.49165
-5.54471
-5.59327
-5.63881
-5.68145
-5.72114
-5.75821
-5.79297
-5.8257
-5.85658
-5.88581
-5.08283
-4.92379
-5.05268
-5.2067
-5.29673
-5.36798
-5.43677
-5.49754
-5.55018
-5.59831
-5.64342
-5.68552
-5.72464
-5.76115
-5.79537
-5.8276
-5.85807
-5.88703
-5.20545
-5.02551
-5.03968
-5.11177
-5.20005
-5.29916
-5.38972
-5.46335
-5.5249
-5.57988
-5.63003
-5.67564
-5.71728
-5.75562
-5.79115
-5.82435
-5.85565
-5.8857
-4.91274
-5.50443
-5.59323
-5.46891
-5.41448
-5.44153
-5.48837
-5.53147
-5.57288
-5.6149
-5.65623
-5.6954
-5.7322
-5.76677
-5.79918
-5.82959
-5.85821
-5.88683
-1.9247
-3.68733
-4.69198
-4.99106
-5.14015
-5.28367
-5.39756
-5.47838
-5.54246
-5.59916
-5.65026
-5.69614
-5.73765
-5.77573
-5.81087
-5.84288
-5.8716
-5.89529
-6.75222
-6.75224
-6.75259
-6.75332
-6.75427
-6.75537
-6.75662
-6.75806
-6.75971
-6.76164
-6.76389
-6.76651
-6.76953
-6.77301
-6.77699
-6.78153
-6.78665
-6.7924
-6.79883
-6.80597
-6.81386
-6.82256
-6.83211
-6.84259
-6.85407
-6.86669
-6.88062
-6.89596
-6.9125
-6.92992
-6.94848
-6.96892
-6.99068
-7.01266
-7.03531
-7.06021
-7.08745
-7.1152
-7.14215
-7.16883
-7.1966
-7.22149
-7.24088
-7.26234
-7.28833
-7.3157
-7.34423
-7.37343
-7.40309
-7.43304
-7.46313
-7.49327
-7.52333
-7.55322
-7.58283
-7.61206
-7.64081
-7.66898
-7.69644
-7.72309
-7.74881
-7.77347
-7.79694
-7.81908
-7.83975
-7.85879
-7.87606
-7.89139
-7.9046
-7.91554
-7.92402
-7.92987
-7.93289
-7.9329
-7.9297
-7.9231
-7.91291
-7.89893
-7.88096
-7.8588
-7.83226
-7.80115
-7.76526
-7.72442
-7.67843
-7.62714
-7.57033
-7.50787
-7.43957
-7.36529
-7.2849
-7.19827
-7.10526
-7.00573
-6.89965
-6.78711
-6.66819
-6.54268
-6.41
-6.27002
-6.12299
-5.96896
-5.80797
-5.64005
-5.46521
-5.28351
-5.09501
-4.89977
-4.69788
-4.48947
-4.27463
-4.05351
-3.82626
-3.59305
-3.35404
-3.10944
-2.85944
-2.60427
-2.34415
-2.07934
-1.81009
-1.53667
-1.25935
-0.978412
-0.694141
-0.406846
-0.116835
0.175573
0.470071
0.766353
1.0641
1.36294
1.66255
1.96259
2.26277
2.56276
2.86222
3.16083
3.45828
3.75425
4.04846
4.3406
4.63041
4.91759
5.20191
5.48309
5.7609
6.03513
6.30554
6.57195
6.83417
7.09201
7.34534
7.59399
7.83784
8.07678
8.31069
8.53949
8.7631
8.98146
9.19452
9.40225
9.60474
9.80199
9.99377
10.1799
10.3604
10.5353
10.7046
10.8684
11.0266
11.1794
11.3268
11.4689
11.6059
11.7383
11.8674
11.9945
12.1313
12.2744
-6.75118
-6.75144
-6.75192
-6.75258
-6.75322
-6.75378
-6.75435
-6.75509
-6.7561
-6.75745
-6.75918
-6.76131
-6.76387
-6.7669
-6.77042
-6.77447
-6.7791
-6.78432
-6.79019
-6.79675
-6.80404
-6.81211
-6.821
-6.83078
-6.84149
-6.85319
-6.86589
-6.87948
-6.89388
-6.90935
-6.92627
-6.94388
-6.96162
-6.98063
-7.00161
-7.02307
-7.0439
-7.06474
-7.08691
-7.11102
-7.13517
-7.16242
-7.19728
-7.2328
-7.26367
-7.29366
-7.32341
-7.35319
-7.38307
-7.41305
-7.44307
-7.47306
-7.50295
-7.53265
-7.56207
-7.59113
-7.61972
-7.64774
-7.67509
-7.70165
-7.72731
-7.75195
-7.77543
-7.79761
-7.81836
-7.83753
-7.85496
-7.8705
-7.88397
-7.8952
-7.90402
-7.91026
-7.91371
-7.91421
-7.91154
-7.90553
-7.89598
-7.88268
-7.86544
-7.84407
-7.81837
-7.78815
-7.75321
-7.71337
-7.66844
-7.61825
-7.56262
-7.50138
-7.43437
-7.36145
-7.28248
-7.19734
-7.10589
-7.008
-6.90356
-6.79243
-6.6744
-6.54936
-6.4175
-6.27894
-6.1335
-5.98113
-5.82184
-5.65562
-5.48251
-5.30253
-5.11576
-4.92224
-4.72209
-4.51538
-4.30225
-4.08282
-3.85725
-3.62568
-3.38829
-3.14528
-2.89685
-2.6432
-2.38457
-2.1212
-1.85335
-1.58128
-1.30526
-1.02556
-0.742475
-0.456304
-0.167357
0.12405
0.417612
0.713027
1.00998
1.30811
1.60706
1.90653
2.20621
2.50578
2.80489
3.10324
3.4005
3.69637
3.99054
4.28273
4.57265
4.86004
5.14462
5.42614
5.70436
5.97906
6.25002
6.51704
6.77992
7.03849
7.29259
7.54207
7.7868
8.02666
8.26154
8.49135
8.71602
8.93549
9.14974
9.35872
9.56223
9.75997
9.95199
10.1384
10.3193
10.4946
10.6643
10.8286
10.9873
11.1407
11.2887
11.4315
11.5694
11.703
11.8337
11.9627
12.1023
12.2401
-6.74758
-6.74846
-6.74971
-6.7508
-6.75148
-6.75188
-6.75223
-6.75271
-6.75346
-6.75455
-6.75605
-6.75797
-6.76035
-6.76322
-6.76661
-6.77055
-6.77508
-6.78023
-6.78604
-6.79256
-6.79983
-6.8079
-6.81682
-6.82664
-6.83741
-6.84918
-6.86194
-6.87562
-6.89016
-6.90565
-6.92221
-6.93969
-6.95799
-6.97753
-6.99846
-7.02011
-7.04178
-7.06382
-7.08678
-7.11061
-7.13477
-7.16028
-7.1887
-7.21853
-7.24801
-7.27743
-7.30683
-7.33626
-7.36575
-7.39527
-7.4248
-7.45428
-7.48366
-7.51285
-7.54179
-7.57037
-7.59852
-7.62613
-7.6531
-7.67932
-7.70468
-7.72906
-7.75232
-7.77433
-7.79495
-7.81405
-7.83145
-7.84701
-7.86055
-7.87192
-7.88093
-7.88741
-7.89117
-7.89203
-7.88979
-7.88427
-7.87527
-7.86259
-7.84604
-7.82542
-7.80054
-7.7712
-7.73721
-7.69839
-7.65455
-7.6055
-7.55109
-7.49113
-7.42545
-7.35393
-7.27641
-7.19277
-7.10287
-7.0066
-6.90386
-6.79452
-6.67839
-6.55533
-6.42542
-6.28874
-6.14522
-5.99482
-5.83753
-5.67335
-5.50229
-5.32439
-5.13971
-4.94829
-4.75024
-4.54564
-4.33462
-4.11729
-3.8938
-3.66431
-3.42898
-3.18801
-2.94158
-2.68991
-2.43323
-2.17177
-1.90579
-1.63554
-1.36128
-1.0833
-0.801879
-0.517311
-0.229908
0.060019
0.352164
0.646233
0.941905
1.23883
1.53666
1.83509
2.13381
2.43249
2.7308
3.02843
3.32505
3.62036
3.91406
4.20587
4.49548
4.78264
5.06707
5.34853
5.62675
5.90153
6.17264
6.43987
6.70303
6.96194
7.21644
7.46637
7.71161
7.95202
8.18749
8.41792
8.64322
8.86331
9.07811
9.2876
9.49175
9.6905
9.88381
10.0716
10.2538
10.4305
10.6016
10.7672
10.9273
11.082
11.2314
11.3757
11.5152
11.6506
11.7836
11.9144
12.0562
12.1821
-6.74164
-6.74327
-6.74573
-6.74774
-6.749
-6.74982
-6.75046
-6.75113
-6.75198
-6.7531
-6.75459
-6.75649
-6.75885
-6.7617
-6.76507
-6.76901
-6.77354
-6.77871
-6.78454
-6.79109
-6.7984
-6.80651
-6.81546
-6.8253
-6.83607
-6.84779
-6.86047
-6.87405
-6.88852
-6.90387
-6.92011
-6.93724
-6.95523
-6.9742
-6.99419
-7.01502
-7.03647
-7.05862
-7.08174
-7.10588
-7.13092
-7.15692
-7.18403
-7.21198
-7.24033
-7.26895
-7.29774
-7.32665
-7.35565
-7.38472
-7.4138
-7.44286
-7.47182
-7.50061
-7.52917
-7.55741
-7.58524
-7.61257
-7.63929
-7.66529
-7.69047
-7.7147
-7.73786
-7.75982
-7.78042
-7.79953
-7.817
-7.83266
-7.84636
-7.85792
-7.86718
-7.87394
-7.87803
-7.87927
-7.87746
-7.87241
-7.86392
-7.85181
-7.83587
-7.81591
-7.79173
-7.76314
-7.72996
-7.69198
-7.64903
-7.60092
-7.54748
-7.48855
-7.42394
-7.35351
-7.27713
-7.19464
-7.10592
-7.01084
-6.90929
-6.80117
-6.68634
-6.56472
-6.43631
-6.30111
-6.15909
-6.01021
-5.85446
-5.69183
-5.52234
-5.34603
-5.16293
-4.97312
-4.77667
-4.57368
-4.36426
-4.14852
-3.92662
-3.69871
-3.46495
-3.22552
-2.98062
-2.73046
-2.47525
-2.21525
-1.95068
-1.68181
-1.4089
-1.13223
-0.852066
-0.568717
-0.282488
0.00631373
0.297389
0.590441
0.885137
1.18113
1.4781
1.77575
2.07374
2.37174
2.66944
2.96652
3.26265
3.55754
3.85088
4.14239
4.43176
4.71874
5.00306
5.28445
5.56268
5.83751
6.10872
6.37611
6.63948
6.89865
7.15345
7.40373
7.64934
7.89015
8.12605
8.35695
8.58276
8.8034
9.01878
9.22888
9.43366
9.63315
9.82731
10.016
10.1992
10.3768
10.5488
10.7154
10.8764
11.0321
11.1824
11.3277
11.4684
11.6048
11.7389
11.8696
12.0097
12.1217
-6.73474
-6.73717
-6.74106
-6.74426
-6.74636
-6.74781
-6.74898
-6.75007
-6.75125
-6.75265
-6.75436
-6.75647
-6.75901
-6.76203
-6.76558
-6.76969
-6.7744
-6.77975
-6.78578
-6.79253
-6.80004
-6.80835
-6.81751
-6.82753
-6.83847
-6.85033
-6.86312
-6.87682
-6.8914
-6.90686
-6.92318
-6.94035
-6.95837
-6.97727
-6.99704
-7.01762
-7.03893
-7.061
-7.08393
-7.10778
-7.13255
-7.15825
-7.18479
-7.21198
-7.23963
-7.26761
-7.29585
-7.32427
-7.35282
-7.38148
-7.41017
-7.43886
-7.46748
-7.49595
-7.52422
-7.55218
-7.57977
-7.60688
-7.63342
-7.65927
-7.68433
-7.70847
-7.73157
-7.7535
-7.77412
-7.79327
-7.81082
-7.82659
-7.84043
-7.85217
-7.86163
-7.86864
-7.873
-7.87455
-7.87307
-7.86839
-7.86031
-7.84863
-7.83316
-7.8137
-7.79005
-7.76203
-7.72943
-7.69207
-7.64977
-7.60234
-7.54961
-7.4914
-7.42755
-7.35791
-7.28233
-7.20067
-7.1128
-7.01858
-6.91792
-6.8107
-6.69682
-6.57622
-6.44885
-6.31469
-6.17372
-6.02589
-5.8712
-5.70964
-5.54122
-5.36599
-5.18398
-4.99526
-4.7999
-4.598
-4.38967
-4.17502
-3.9542
-3.72736
-3.49466
-3.25628
-3.01241
-2.76326
-2.50906
-2.25003
-1.98642
-1.71849
-1.44648
-1.17067
-0.891358
-0.608825
-0.323378
-0.0353266
0.255045
0.547427
0.841474
1.13685
1.43327
1.73041
2.02793
2.32551
2.62283
2.91956
3.2154
3.51004
3.80318
4.09452
4.38379
4.6707
4.95499
5.2364
5.51468
5.78961
6.06097
6.32853
6.59212
6.85153
7.10661
7.35719
7.60314
7.84433
8.08065
8.31199
8.53826
8.75937
8.97525
9.18584
9.39109
9.591
9.78558
9.9747
10.1583
10.3364
10.509
10.676
10.8376
10.9938
11.1447
11.2905
11.4317
11.5684
11.7024
11.8316
11.9683
12.0675
-6.7283
-6.73149
-6.73674
-6.74112
-6.74411
-6.74629
-6.74807
-6.7497
-6.75136
-6.75318
-6.75527
-6.75773
-6.76061
-6.76396
-6.76783
-6.77226
-6.77729
-6.78296
-6.78931
-6.79637
-6.8042
-6.81283
-6.82228
-6.8326
-6.8438
-6.8559
-6.86891
-6.88281
-6.8976
-6.91325
-6.92974
-6.94706
-6.96521
-6.98418
-7.00397
-7.02453
-7.04585
-7.06793
-7.09077
-7.11438
-7.13878
-7.16397
-7.18988
-7.2164
-7.24342
-7.27084
-7.29857
-7.32654
-7.3547
-7.383
-7.41137
-7.43975
-7.4681
-7.49633
-7.52437
-7.55215
-7.57957
-7.60655
-7.63297
-7.65874
-7.68375
-7.70787
-7.73097
-7.75293
-7.7736
-7.79284
-7.81049
-7.8264
-7.8404
-7.85232
-7.86199
-7.86922
-7.87384
-7.87565
-7.87447
-7.87011
-7.86236
-7.85103
-7.83593
-7.81685
-7.79361
-7.76601
-7.73385
-7.69695
-7.65512
-7.60817
-7.55594
-7.49825
-7.43494
-7.36584
-7.29083
-7.20974
-7.12246
-7.02885
-6.92881
-6.82223
-6.70901
-6.5891
-6.46244
-6.32899
-6.18872
-6.04161
-5.88763
-5.72678
-5.55909
-5.38459
-5.20331
-5.01532
-4.8207
-4.61953
-4.41193
-4.19802
-3.97793
-3.75181
-3.51983
-3.28216
-3.039
-2.79055
-2.53703
-2.27868
-2.01573
-1.74843
-1.47704
-1.20184
-0.923111
-0.641144
-0.356245
-0.0687116
0.22117
0.513073
0.806656
1.1016
1.39763
1.69441
1.99161
2.28888
2.58593
2.88242
3.17805
3.47251
3.76551
4.05674
4.34593
4.63279
4.91707
5.19849
5.47683
5.75184
6.0233
6.29099
6.55474
6.81434
7.06964
7.32047
7.5667
7.80818
8.04481
8.27648
8.50308
8.72454
8.94077
9.1517
9.35728
9.55749
9.75233
9.94173
10.1256
10.3041
10.4769
10.6443
10.8062
10.9628
11.114
11.2601
11.4013
11.538
11.6712
11.7983
11.9316
12.0194
-6.72337
-6.72727
-6.73363
-6.73902
-6.74285
-6.74576
-6.74819
-6.7504
-6.75258
-6.75488
-6.75743
-6.76032
-6.76361
-6.76737
-6.77164
-6.77647
-6.78189
-6.78795
-6.79469
-6.80214
-6.81033
-6.81931
-6.82911
-6.83974
-6.85123
-6.86359
-6.87682
-6.89093
-6.9059
-6.92172
-6.93836
-6.95582
-6.97407
-6.99311
-7.01291
-7.03348
-7.05478
-7.07681
-7.09957
-7.12304
-7.14721
-7.17206
-7.19754
-7.2236
-7.25016
-7.27714
-7.30447
-7.33209
-7.35993
-7.38795
-7.41607
-7.44424
-7.47239
-7.50046
-7.52837
-7.55604
-7.58338
-7.6103
-7.6367
-7.66246
-7.68749
-7.71165
-7.73482
-7.75686
-7.77764
-7.797
-7.8148
-7.83087
-7.84504
-7.85715
-7.86702
-7.87447
-7.87932
-7.88137
-7.88044
-7.87633
-7.86885
-7.8578
-7.84298
-7.82419
-7.80125
-7.77395
-7.7421
-7.70551
-7.664
-7.61738
-7.56549
-7.50813
-7.44516
-7.37642
-7.30176
-7.22105
-7.13413
-7.04091
-6.94126
-6.83508
-6.72229
-6.60281
-6.47659
-6.34358
-6.20376
-6.05709
-5.90355
-5.74316
-5.57592
-5.40187
-5.22105
-5.03353
-4.83938
-4.63868
-4.43155
-4.21811
-3.9985
-3.77285
-3.54134
-3.30414
-3.06145
-2.81347
-2.56041
-2.30251
-2.04001
-1.77315
-1.50219
-1.22741
-0.949093
-0.667525
-0.383014
-0.0958457
0.193677
0.485223
0.778461
1.07309
1.36883
1.66535
1.96228
2.25933
2.55616
2.85246
3.14792
3.44223
3.7351
4.02623
4.31534
4.60215
4.88638
5.1678
5.44614
5.72118
5.99269
6.26047
6.52431
6.78405
7.03949
7.29049
7.5369
7.77858
8.01542
8.2473
8.47414
8.69583
8.9123
9.12348
9.3293
9.52974
9.72478
9.91439
10.0985
10.2772
10.4503
10.6179
10.7801
10.9368
11.0882
11.2344
11.3755
11.5117
11.6439
11.7687
11.8989
11.9768
-6.72069
-6.72513
-6.7323
-6.73848
-6.74302
-6.74658
-6.74961
-6.75237
-6.75507
-6.75787
-6.76088
-6.76422
-6.76795
-6.77213
-6.77683
-6.78207
-6.78791
-6.79437
-6.8015
-6.80934
-6.8179
-6.82724
-6.83736
-6.84829
-6.86005
-6.87266
-6.8861
-6.9004
-6.91553
-6.93148
-6.94824
-6.96579
-6.98412
-7.00321
-7.02304
-7.0436
-7.06487
-7.08684
-7.10951
-7.13285
-7.15685
-7.18148
-7.20669
-7.23246
-7.25872
-7.2854
-7.31246
-7.33983
-7.36746
-7.39529
-7.42326
-7.4513
-7.47936
-7.50736
-7.53522
-7.56287
-7.59021
-7.61715
-7.64359
-7.66942
-7.69453
-7.71879
-7.74208
-7.76426
-7.78518
-7.8047
-7.82267
-7.83891
-7.85327
-7.86557
-7.87564
-7.88329
-7.88833
-7.89059
-7.88986
-7.88595
-7.87867
-7.86782
-7.8532
-7.83461
-7.81186
-7.78475
-7.75309
-7.71669
-7.67537
-7.62893
-7.57722
-7.52005
-7.45726
-7.3887
-7.31423
-7.2337
-7.14697
-7.05394
-6.95449
-6.84852
-6.73594
-6.61668
-6.49069
-6.35792
-6.21832
-6.07188
-5.91858
-5.75842
-5.59143
-5.41762
-5.23706
-5.04979
-4.85589
-4.65547
-4.44861
-4.23545
-4.01611
-3.79075
-3.55952
-3.32262
-3.08022
-2.83253
-2.57977
-2.32217
-2.05996
-1.79338
-1.52272
-1.24822
-0.970182
-0.688893
-0.404651
-0.117742
0.171514
0.462791
0.755774
1.05017
1.34569
1.642
1.93873
2.23559
2.53224
2.82838
3.12369
3.41787
3.71062
4.00165
4.29067
4.5774
4.86158
5.14295
5.42127
5.69631
5.96784
6.23565
6.49955
6.75934
7.01487
7.26596
7.51248
7.75429
7.99126
8.22329
8.45027
8.67213
8.88876
9.1001
9.3061
9.5067
9.70191
9.89168
10.076
10.2548
10.4281
10.5959
10.7582
10.915
11.0664
11.2125
11.3534
11.4889
11.62
11.7424
11.8698
11.939
-6.7206
-6.72537
-6.73304
-6.73975
-6.74484
-6.74893
-6.75247
-6.75573
-6.7589
-6.76214
-6.76559
-6.76934
-6.77348
-6.77806
-6.78314
-6.78876
-6.79497
-6.80181
-6.8093
-6.81748
-6.82638
-6.83603
-6.84644
-6.85763
-6.86963
-6.88244
-6.89606
-6.9105
-6.92575
-6.9418
-6.95863
-6.97624
-6.99461
-7.01373
-7.03357
-7.05412
-7.07537
-7.09731
-7.11991
-7.14317
-7.16705
-7.19154
-7.2166
-7.24219
-7.26827
-7.29478
-7.32169
-7.34892
-7.37644
-7.40418
-7.43209
-7.4601
-7.48814
-7.51616
-7.54405
-7.57176
-7.59917
-7.62621
-7.65276
-7.67872
-7.70396
-7.72837
-7.75182
-7.77416
-7.79526
-7.81496
-7.8331
-7.84952
-7.86406
-7.87654
-7.88678
-7.8946
-7.89981
-7.90222
-7.90164
-7.89787
-7.89072
-7.87999
-7.86548
-7.84699
-7.82433
-7.79731
-7.76572
-7.72939
-7.68812
-7.64174
-7.59007
-7.53294
-7.47019
-7.40167
-7.32723
-7.24673
-7.16004
-7.06704
-6.96762
-6.86169
-6.74916
-6.62996
-6.50402
-6.3713
-6.23177
-6.08539
-5.93216
-5.77207
-5.60515
-5.43144
-5.25096
-5.06379
-4.87001
-4.6697
-4.46296
-4.24993
-4.03073
-3.80552
-3.57445
-3.3377
-3.09547
-2.84796
-2.59538
-2.33796
-2.07593
-1.80955
-1.53907
-1.26477
-0.986925
-0.705832
-0.421778
-0.135066
0.153984
0.445054
0.73784
1.03205
1.3274
1.62353
1.92009
2.21678
2.51328
2.80926
3.10443
3.39848
3.69111
3.98202
4.27094
4.55758
4.84169
5.123
5.40127
5.67627
5.94778
6.21558
6.47948
6.73929
6.99485
7.24598
7.49255
7.73442
7.97147
8.20358
8.43065
8.6526
8.86934
9.08079
9.2869
9.48763
9.68295
9.87283
10.0573
10.2362
10.4096
10.5775
10.7398
10.8967
11.048
11.1939
11.3344
11.4691
11.5988
11.7189
11.8437
11.9055
-6.7231
-6.72803
-6.73589
-6.74289
-6.74833
-6.75282
-6.75676
-6.76041
-6.76396
-6.76758
-6.77138
-6.77549
-6.77996
-6.78487
-6.79028
-6.79623
-6.80275
-6.80989
-6.81767
-6.82613
-6.83529
-6.84517
-6.8558
-6.86719
-6.87936
-6.89231
-6.90605
-6.92058
-6.9359
-6.952
-6.96888
-6.98652
-7.0049
-7.02402
-7.04386
-7.06441
-7.08565
-7.10757
-7.13015
-7.15336
-7.1772
-7.20163
-7.22662
-7.25214
-7.27816
-7.30461
-7.33146
-7.35867
-7.38617
-7.41392
-7.44185
-7.46991
-7.49803
-7.52613
-7.55413
-7.58196
-7.60951
-7.63669
-7.6634
-7.68953
-7.71495
-7.73954
-7.76317
-7.78569
-7.80697
-7.82684
-7.84515
-7.86174
-7.87643
-7.88905
-7.89942
-7.90735
-7.91267
-7.91517
-7.91466
-7.91096
-7.90385
-7.89315
-7.87865
-7.86017
-7.8375
-7.81044
-7.77882
-7.74243
-7.7011
-7.65465
-7.6029
-7.54569
-7.48284
-7.41422
-7.33968
-7.25907
-7.17228
-7.07918
-6.97967
-6.87364
-6.76102
-6.64174
-6.51572
-6.38293
-6.24333
-6.09688
-5.94359
-5.78346
-5.6165
-5.44275
-5.26226
-5.07508
-4.88129
-4.68099
-4.47428
-4.26128
-4.04213
-3.81697
-3.58597
-3.3493
-3.10716
-2.85975
-2.60727
-2.34997
-2.08806
-1.82181
-1.55146
-1.27731
-0.999612
-0.718669
-0.434767
-0.148223
0.140651
0.431549
0.724164
1.01821
1.31339
1.60935
1.90574
2.20226
2.49859
2.79442
3.08944
3.38334
3.67583
3.96662
4.25541
4.54194
4.82595
5.10716
5.38535
5.66028
5.93172
6.19947
6.46332
6.7231
6.97864
7.22976
7.47633
7.71822
7.95528
8.18742
8.41454
8.63653
8.85332
9.06483
9.27101
9.47181
9.6672
9.85716
10.0417
10.2206
10.3941
10.562
10.7244
10.8812
11.0324
11.178
11.3179
11.4518
11.5801
11.6979
11.8204
11.8758
-6.72801
-6.73293
-6.74072
-6.74778
-6.75339
-6.75811
-6.76232
-6.76625
-6.77008
-6.77397
-6.77805
-6.78241
-6.78714
-6.7923
-6.79794
-6.80411
-6.81084
-6.81818
-6.82615
-6.83478
-6.8441
-6.85413
-6.86488
-6.87638
-6.88864
-6.90167
-6.91547
-6.93004
-6.94539
-6.96152
-6.97841
-6.99605
-7.01444
-7.03357
-7.05342
-7.07398
-7.09523
-7.11716
-7.13974
-7.16297
-7.18682
-7.21126
-7.23627
-7.26181
-7.28784
-7.31433
-7.34123
-7.36849
-7.39606
-7.4239
-7.45194
-7.48012
-7.50837
-7.53661
-7.56477
-7.59277
-7.6205
-7.64786
-7.67476
-7.70107
-7.72667
-7.75144
-7.77524
-7.79793
-7.81936
-7.83938
-7.85782
-7.87452
-7.88931
-7.90201
-7.91244
-7.92042
-7.92576
-7.92826
-7.92774
-7.924
-7.91684
-7.90606
-7.89148
-7.87288
-7.85008
-7.82289
-7.79111
-7.75455
-7.71304
-7.6664
-7.61445
-7.55703
-7.49398
-7.42514
-7.35038
-7.26957
-7.18256
-7.08926
-6.98954
-6.88331
-6.7705
-6.65103
-6.52483
-6.39187
-6.2521
-6.10551
-5.95208
-5.79181
-5.62473
-5.45088
-5.27029
-5.08303
-4.88918
-4.68882
-4.48208
-4.26906
-4.0499
-3.82475
-3.59377
-3.35714
-3.11505
-2.8677
-2.6153
-2.35808
-2.09627
-1.83012
-1.5599
-1.28587
-1.00831
-0.727514
-0.443773
-0.157401
0.131295
0.422015
0.714447
1.00831
1.30331
1.59909
1.89529
2.19162
2.48777
2.78342
3.07826
3.37199
3.66431
3.95493
4.24356
4.52994
4.8138
5.09488
5.37294
5.64775
5.91908
6.18673
6.4505
6.7102
6.96567
7.21674
7.46326
7.70511
7.94215
8.17427
8.40137
8.62336
8.84016
9.05169
9.25789
9.45873
9.65416
9.84415
10.0287
10.2077
10.3812
10.5491
10.7114
10.8681
11.0191
11.1644
11.3037
11.4365
11.5634
11.6791
11.7995
11.8495
-6.73501
-6.73977
-6.74727
-6.75418
-6.7598
-6.7646
-6.76893
-6.77301
-6.777
-6.78106
-6.78529
-6.7898
-6.79467
-6.79995
-6.80571
-6.81198
-6.81881
-6.82623
-6.83427
-6.84296
-6.85234
-6.86241
-6.87321
-6.88474
-6.89702
-6.91007
-6.92388
-6.93846
-6.95381
-6.96993
-6.98681
-7.00446
-7.02285
-7.04199
-7.06186
-7.08244
-7.10373
-7.1257
-7.14834
-7.17163
-7.19555
-7.22006
-7.24514
-7.27075
-7.29687
-7.32346
-7.35047
-7.37786
-7.40558
-7.43357
-7.46176
-7.49011
-7.51853
-7.54695
-7.5753
-7.60347
-7.63138
-7.65893
-7.686
-7.71247
-7.73823
-7.76314
-7.78707
-7.80987
-7.83139
-7.85148
-7.86998
-7.88671
-7.90151
-7.91419
-7.92459
-7.93251
-7.93776
-7.94016
-7.93951
-7.93561
-7.92828
-7.91732
-7.90252
-7.8837
-7.86065
-7.8332
-7.80115
-7.76432
-7.72252
-7.67558
-7.62333
-7.5656
-7.50224
-7.4331
-7.35803
-7.27692
-7.18962
-7.09602
-6.99602
-6.88952
-6.77644
-6.65671
-6.53028
-6.39708
-6.2571
-6.11029
-5.95667
-5.79623
-5.62899
-5.45499
-5.27428
-5.08691
-4.89297
-4.69254
-4.48574
-4.27268
-4.0535
-3.82835
-3.59739
-3.3608
-3.11877
-2.87149
-2.61918
-2.36205
-2.10036
-1.83434
-1.56426
-1.29038
-1.01299
-0.732362
-0.448814
-0.16264
0.125857
0.416368
0.708584
1.00224
1.29703
1.59256
1.88853
2.18464
2.48055
2.77597
3.07058
3.36409
3.65619
3.9466
4.23502
4.5212
4.80486
5.08576
5.36364
5.63828
5.90945
6.17695
6.44058
6.70016
6.95551
7.20647
7.4529
7.69466
7.93162
8.16368
8.39073
8.61268
8.82945
9.04096
9.24715
9.44799
9.64343
9.83343
10.018
10.197
10.3705
10.5383
10.7006
10.8571
11.0079
11.1527
11.2913
11.4232
11.5486
11.6623
11.7807
11.8262
-6.7437
-6.74819
-6.75524
-6.76183
-6.7673
-6.77204
-6.77635
-6.78044
-6.78445
-6.78852
-6.79278
-6.7973
-6.80217
-6.80744
-6.81318
-6.81942
-6.82622
-6.83361
-6.84163
-6.85029
-6.85963
-6.86967
-6.88042
-6.89192
-6.90416
-6.91717
-6.93094
-6.94549
-6.96081
-6.97691
-6.99378
-7.01143
-7.02983
-7.04899
-7.06889
-7.08952
-7.11087
-7.13292
-7.15563
-7.17901
-7.20301
-7.22762
-7.25281
-7.27855
-7.3048
-7.33154
-7.35872
-7.38629
-7.41418
-7.44234
-7.47071
-7.49923
-7.52782
-7.5564
-7.5849
-7.61323
-7.64128
-7.66895
-7.69613
-7.7227
-7.74853
-7.7735
-7.79746
-7.82027
-7.84177
-7.86182
-7.88025
-7.89688
-7.91156
-7.92411
-7.93433
-7.94206
-7.94709
-7.94925
-7.94834
-7.94417
-7.93654
-7.92526
-7.91013
-7.89097
-7.86757
-7.83975
-7.80733
-7.77012
-7.72793
-7.68061
-7.62797
-7.56986
-7.50611
-7.43659
-7.36116
-7.27969
-7.19204
-7.0981
-6.99777
-6.89096
-6.77758
-6.65757
-6.53086
-6.39742
-6.2572
-6.11018
-5.95636
-5.79575
-5.62836
-5.45422
-5.27339
-5.08593
-4.89192
-4.69144
-4.48461
-4.27155
-4.05238
-3.82726
-3.59636
-3.35984
-3.1179
-2.87073
-2.61854
-2.36157
-2.10003
-1.83419
-1.5643
-1.29063
-1.01345
-0.733069
-0.449769
-0.163846
0.124396
0.414632
0.706576
0.999973
1.29447
1.5897
1.88537
2.18117
2.47679
2.77192
3.06624
3.35946
3.65128
3.94141
4.22956
4.51548
4.79888
5.07953
5.35717
5.63158
5.90253
6.16983
6.43326
6.69266
6.94784
7.19864
7.44493
7.68656
7.92341
8.15536
8.38231
8.60418
8.82088
9.03233
9.23849
9.43929
9.63471
9.82469
10.0092
10.1882
10.3616
10.5294
10.6916
10.8479
10.9984
11.1427
11.2806
11.4115
11.5356
11.6474
11.7638
11.8057
-6.75368
-6.75783
-6.76432
-6.77047
-6.77563
-6.78015
-6.78429
-6.78823
-6.7921
-6.79603
-6.80015
-6.80452
-6.80925
-6.81438
-6.81997
-6.82608
-6.83274
-6.83999
-6.84788
-6.85641
-6.86563
-6.87556
-6.88621
-6.89761
-6.90976
-6.92268
-6.93638
-6.95087
-6.96615
-6.98222
-6.99908
-7.01673
-7.03514
-7.05432
-7.07426
-7.09493
-7.11633
-7.13844
-7.16123
-7.1847
-7.20881
-7.23354
-7.25887
-7.28477
-7.31119
-7.33809
-7.36543
-7.39314
-7.42118
-7.44948
-7.47798
-7.5066
-7.53528
-7.56394
-7.59251
-7.62088
-7.64896
-7.67664
-7.70381
-7.73033
-7.7561
-7.78097
-7.80481
-7.82747
-7.84879
-7.86864
-7.88684
-7.90322
-7.91762
-7.92986
-7.93976
-7.94714
-7.95182
-7.9536
-7.9523
-7.94771
-7.93966
-7.92795
-7.91239
-7.89278
-7.86894
-7.84067
-7.8078
-7.77014
-7.72751
-7.67974
-7.62667
-7.56813
-7.50397
-7.43406
-7.35824
-7.27639
-7.18838
-7.0941
-6.99344
-6.88633
-6.77266
-6.65238
-6.52543
-6.39175
-6.25133
-6.10413
-5.95015
-5.7894
-5.62189
-5.44767
-5.26677
-5.07927
-4.88524
-4.68477
-4.47797
-4.26496
-4.04588
-3.82086
-3.59009
-3.35372
-3.11194
-2.86496
-2.61298
-2.35623
-2.09494
-1.82936
-1.55975
-1.28636
-1.0095
-0.72945
-0.446474
-0.16088
0.127009
0.416877
0.708477
1.00153
1.29564
1.59047
1.88575
2.18118
2.47642
2.77117
3.06512
3.35797
3.64942
3.93919
4.227
4.51257
4.79565
5.07597
5.35331
5.62742
5.89809
6.16512
6.4283
6.68745
6.94241
7.19301
7.4391
7.68055
7.91723
8.14904
8.37586
8.59761
8.8142
9.02558
9.23166
9.43241
9.62778
9.81772
10.0022
10.1812
10.3545
10.5223
10.6843
10.8404
10.9905
11.1343
11.2716
11.4014
11.5242
11.6342
11.7487
11.7879
-6.76461
-6.76838
-6.77424
-6.77983
-6.78456
-6.7887
-6.79249
-6.79608
-6.79963
-6.80325
-6.80706
-6.81114
-6.81557
-6.82043
-6.82576
-6.83161
-6.83803
-6.84506
-6.85272
-6.86105
-6.87008
-6.87983
-6.89032
-6.90158
-6.9136
-6.92641
-6.94001
-6.95441
-6.96961
-6.98562
-7.00243
-7.02003
-7.03842
-7.0576
-7.07754
-7.09824
-7.11967
-7.14182
-7.16469
-7.18825
-7.21248
-7.23733
-7.26277
-7.28877
-7.31527
-7.34225
-7.36964
-7.3974
-7.42546
-7.45376
-7.48222
-7.5108
-7.53941
-7.56799
-7.59645
-7.6247
-7.65262
-7.68012
-7.70707
-7.73336
-7.75886
-7.78343
-7.80695
-7.82927
-7.85023
-7.86969
-7.88748
-7.90343
-7.91739
-7.92918
-7.93861
-7.94551
-7.9497
-7.95098
-7.94917
-7.94409
-7.93553
-7.92331
-7.90723
-7.88712
-7.86277
-7.83401
-7.80065
-7.76251
-7.71941
-7.67119
-7.61768
-7.55871
-7.49415
-7.42385
-7.34767
-7.26547
-7.17713
-7.08254
-6.98161
-6.87423
-6.76033
-6.63984
-6.5127
-6.37886
-6.23831
-6.091
-5.93694
-5.77614
-5.60861
-5.43439
-5.25352
-5.06607
-4.87213
-4.67177
-4.4651
-4.25226
-4.03336
-3.80855
-3.57801
-3.3419
-3.10041
-2.85373
-2.60207
-2.34566
-2.08473
-1.81952
-1.55031
-1.27734
-1.00092
-0.721286
-0.438742
-0.153602
0.133809
0.423206
0.714368
1.00695
1.30054
1.59488
1.88967
2.18461
2.47937
2.77364
3.06712
3.3595
3.6505
3.93982
4.22719
4.51234
4.795
5.07492
5.35187
5.62561
5.89593
6.16262
6.42548
6.68433
6.939
7.18934
7.43518
7.6764
7.91288
8.14449
8.37115
8.59275
8.80921
9.02047
9.22646
9.42713
9.62244
9.81233
9.99676
10.1757
10.349
10.5166
10.6784
10.8343
10.9841
11.1274
11.2639
11.3928
11.5143
11.6227
11.7353
11.7724
-6.77666
-6.78005
-6.78528
-6.79024
-6.79437
-6.79792
-6.80113
-6.80416
-6.80716
-6.81025
-6.81355
-6.81715
-6.82113
-6.82556
-6.83049
-6.83597
-6.84204
-6.84873
-6.85609
-6.86414
-6.87289
-6.88239
-6.89263
-6.90366
-6.91547
-6.92808
-6.9415
-6.95573
-6.97078
-6.98664
-7.0033
-7.02078
-7.03906
-7.05815
-7.07802
-7.09867
-7.12008
-7.14222
-7.16507
-7.1886
-7.21279
-7.23759
-7.26296
-7.28886
-7.31526
-7.34209
-7.36932
-7.39688
-7.42471
-7.45277
-7.48097
-7.50927
-7.5376
-7.56587
-7.59399
-7.62187
-7.64939
-7.67646
-7.70296
-7.72877
-7.75377
-7.77783
-7.80081
-7.82258
-7.84298
-7.86186
-7.87907
-7.89445
-7.90781
-7.91901
-7.92785
-7.93416
-7.93776
-7.93846
-7.93607
-7.93042
-7.9213
-7.90853
-7.89192
-7.87128
-7.84643
-7.81717
-7.78333
-7.74473
-7.7012
-7.65257
-7.59868
-7.53936
-7.47446
-7.40385
-7.32737
-7.2449
-7.15631
-7.06151
-6.96038
-6.85285
-6.73882
-6.61823
-6.49102
-6.35714
-6.21657
-6.06928
-5.91528
-5.75456
-5.58713
-5.41305
-5.23236
-5.04511
-4.85139
-4.65128
-4.4449
-4.23237
-4.01381
-3.78938
-3.55922
-3.32353
-3.08247
-2.83625
-2.58507
-2.32916
-2.06875
-1.80409
-1.53544
-1.26304
-0.987183
-0.708125
-0.426179
-0.141658
0.145123
0.433926
0.724508
1.01645
1.30938
1.60308