/*--------------------------------*- C++ -*----------------------------------*\
  =========                 |
  \\      /  F ield         | OpenFOAM: The Open Source CFD Toolbox
   \\    /   O peration     | Website:  https://openfoam.org
    \\  /    A nd           | Version:  12
     \\/     M anipulation  |
\*---------------------------------------------------------------------------*/
FoamFile
{
    format      ascii;
    class       surfaceScalarField;
    location    "286";
    object      phi;
}
// * * * * * * * * * * * * * * * * * * * * * * * * * * * * * * * * * * * * * //

dimensions      [0 3 -1 0 0 0 0];

internalField   nonuniform List<scalar> 
24170
(
3.12901e-06
5.94e-08
3.04663e-06
8.23771e-08
2.97354e-06
7.30885e-08
2.90491e-06
6.86267e-08
2.8406e-06
6.43191e-08
2.78329e-06
5.73084e-08
2.73398e-06
4.93069e-08
2.69205e-06
4.19306e-08
2.6564e-06
3.56453e-08
2.626e-06
3.04091e-08
2.59985e-06
2.61481e-08
2.57713e-06
2.27203e-08
2.55718e-06
1.99509e-08
2.53943e-06
1.77432e-08
2.52354e-06
1.58953e-08
2.50863e-06
1.49119e-08
2.49512e-06
1.35052e-08
1.75754e-08
2.47755e-06
3.45306e-06
2.35847e-08
3.45701e-06
7.84355e-08
3.45055e-06
7.95476e-08
3.4391e-06
8.008e-08
3.42432e-06
7.90921e-08
3.40708e-06
7.45536e-08
3.38787e-06
6.8515e-08
3.36736e-06
6.2443e-08
3.34623e-06
5.67752e-08
3.32507e-06
5.15694e-08
3.30436e-06
4.68523e-08
3.28439e-06
4.26921e-08
3.26535e-06
3.89937e-08
3.24728e-06
3.58096e-08
3.23029e-06
3.28899e-08
3.21428e-06
3.09152e-08
3.19961e-06
2.81804e-08
2.92438e-08
3.18794e-06
3.66816e-06
1.79411e-08
3.6792e-06
6.73926e-08
3.68543e-06
7.33172e-08
3.68947e-06
7.60414e-08
3.69108e-06
7.74883e-08
3.69012e-06
7.5512e-08
3.68699e-06
7.16413e-08
3.68216e-06
6.72705e-08
3.67603e-06
6.29093e-08
3.66891e-06
5.86856e-08
3.6611e-06
5.4671e-08
3.65282e-06
5.09633e-08
3.64429e-06
4.75296e-08
3.63565e-06
4.44453e-08
3.62699e-06
4.15552e-08
3.61864e-06
3.92621e-08
3.61013e-06
3.6688e-08
3.56668e-08
3.60371e-06
3.92585e-06
1.74798e-08
3.93592e-06
5.73203e-08
3.94258e-06
6.66625e-08
3.94812e-06
7.04957e-08
3.95254e-06
7.3067e-08
3.9555e-06
7.25549e-08
3.95718e-06
6.99607e-08
3.95783e-06
6.66227e-08
3.95763e-06
6.31051e-08
3.95674e-06
5.95766e-08
3.95529e-06
5.61224e-08
3.9534e-06
5.28512e-08
3.95117e-06
4.97604e-08
3.9487e-06
4.69151e-08
3.94603e-06
4.4229e-08
3.94339e-06
4.18998e-08
3.94054e-06
3.95402e-08
3.76745e-08
3.93853e-06
4.2082e-06
1.64066e-08
4.21599e-06
4.95327e-08
4.22169e-06
6.09606e-08
4.2268e-06
6.53849e-08
4.23156e-06
6.83113e-08
4.23554e-06
6.85739e-08
4.23872e-06
6.67809e-08
4.24121e-06
6.41312e-08
4.24312e-06
6.11958e-08
4.24453e-06
5.81605e-08
4.24554e-06
5.51191e-08
4.24621e-06
5.21775e-08
4.24661e-06
4.93576e-08
4.24682e-06
4.67089e-08
4.24686e-06
4.41891e-08
4.24688e-06
4.18838e-08
4.2468e-06
3.96144e-08
3.74694e-08
4.24701e-06
4.51071e-06
1.4783e-08
4.51689e-06
4.33572e-08
4.52214e-06
5.57078e-08
4.52696e-06
6.05621e-08
4.53168e-06
6.3591e-08
4.53594e-06
6.43152e-08
4.53963e-06
6.30951e-08
4.5428e-06
6.09552e-08
4.54554e-06
5.84554e-08
4.54791e-06
5.57932e-08
4.54996e-06
5.30728e-08
4.55174e-06
5.03924e-08
4.55331e-06
4.77912e-08
4.55471e-06
4.53055e-08
4.55598e-06
4.29184e-08
4.55721e-06
4.06576e-08
4.55839e-06
3.8434e-08
3.62134e-08
4.55965e-06
4.83433e-06
1.31718e-08
4.83963e-06
3.80567e-08
4.84476e-06
5.05786e-08
4.84947e-06
5.58521e-08
4.85411e-06
5.89498e-08
4.85844e-06
5.99874e-08
4.86232e-06
5.92104e-08
4.8658e-06
5.74751e-08
4.86894e-06
5.53223e-08
4.87177e-06
5.29608e-08
4.87434e-06
5.05029e-08
4.87669e-06
4.80404e-08
4.87886e-06
4.56226e-08
4.88089e-06
4.32781e-08
4.8828e-06
4.10034e-08
4.88466e-06
3.88001e-08
4.88648e-06
3.6619e-08
3.44075e-08
4.88828e-06
5.18105e-06
1.17045e-08
5.18576e-06
3.33479e-08
5.19076e-06
4.55721e-08
5.19542e-06
5.11944e-08
5.20001e-06
5.43559e-08
5.20438e-06
5.5618e-08
5.20839e-06
5.5202e-08
5.21206e-06
5.381e-08
5.21543e-06
5.19527e-08
5.21854e-06
4.98494e-08
5.22142e-06
4.76182e-08
5.22412e-06
4.53471e-08
5.22665e-06
4.30904e-08
5.22905e-06
4.08743e-08
5.23135e-06
3.8702e-08
5.23359e-06
3.65675e-08
5.23577e-06
3.44407e-08
3.22821e-08
5.23789e-06
5.55269e-06
1.03481e-08
5.55689e-06
2.9149e-08
5.5617e-06
4.07608e-08
5.56632e-06
4.65798e-08
5.57089e-06
4.97835e-08
5.57531e-06
5.12031e-08
5.57942e-06
5.10855e-08
5.58324e-06
4.99959e-08
5.58679e-06
4.84024e-08
5.5901e-06
4.65322e-08
5.59322e-06
4.45065e-08
5.59615e-06
4.2412e-08
5.59894e-06
4.03044e-08
5.6016e-06
3.82115e-08
5.60416e-06
3.61405e-08
5.60664e-06
3.40866e-08
5.60905e-06
3.20311e-08
2.99542e-08
5.61138e-06
5.95104e-06
9.08412e-09
5.95479e-06
2.53993e-08
5.95937e-06
3.61839e-08
5.96393e-06
4.2019e-08
5.96848e-06
4.52291e-08
5.97294e-06
4.67496e-08
5.97715e-06
4.68717e-08
5.9811e-06
4.60479e-08
5.98481e-06
4.46943e-08
5.9883e-06
4.30393e-08
5.9916e-06
4.12064e-08
5.99473e-06
3.92805e-08
5.99772e-06
3.7318e-08
6.00058e-06
3.53489e-08
6.00334e-06
3.33846e-08
6.006e-06
3.14246e-08
6.00857e-06
2.94591e-08
2.74853e-08
6.01104e-06
6.37798e-06
7.91214e-09
6.38135e-06
2.20339e-08
6.38568e-06
3.18519e-08
6.39017e-06
3.75283e-08
6.3947e-06
4.06983e-08
6.39918e-06
4.22696e-08
6.40348e-06
4.2573e-08
6.40755e-06
4.1977e-08
6.41141e-06
4.08407e-08
6.41506e-06
3.9386e-08
6.41853e-06
3.77368e-08
6.42183e-06
3.59755e-08
6.42499e-06
3.41585e-08
6.42802e-06
3.23181e-08
6.43094e-06
3.04698e-08
6.43375e-06
2.86184e-08
6.43644e-06
2.6761e-08
2.49078e-08
6.43902e-06
5.74176e-06
6.98528e-09
5.74435e-06
1.94493e-08
5.74782e-06
2.83798e-08
5.75155e-06
3.37966e-08
5.75536e-06
3.6891e-08
5.75915e-06
3.84717e-08
5.76284e-06
3.88843e-08
5.76637e-06
3.8449e-08
5.76973e-06
3.74789e-08
5.77294e-06
3.61827e-08
5.77599e-06
3.46826e-08
5.77891e-06
3.30589e-08
5.7817e-06
3.13671e-08
5.78438e-06
2.96411e-08
5.78695e-06
2.78994e-08
5.78941e-06
2.61511e-08
5.79178e-06
2.43982e-08
2.26592e-08
5.79403e-06
6.99914e-06
6.00096e-09
7.00187e-06
1.67142e-08
7.00564e-06
2.46126e-08
7.00981e-06
2.96257e-08
7.01414e-06
3.25658e-08
7.0185e-06
3.41118e-08
7.02278e-06
3.46044e-08
7.02691e-06
3.43179e-08
7.03087e-06
3.35159e-08
7.03467e-06
3.23884e-08
7.0383e-06
3.10524e-08
7.04177e-06
2.9585e-08
7.0451e-06
2.80398e-08
7.04829e-06
2.6452e-08
7.05134e-06
2.48427e-08
7.05427e-06
2.32251e-08
7.05706e-06
2.16054e-08
2.00083e-08
7.05971e-06
8.53188e-06
4.96685e-09
8.53474e-06
1.38562e-08
8.53877e-06
2.0578e-08
8.54338e-06
2.50229e-08
8.54824e-06
2.77049e-08
8.5532e-06
2.91531e-08
8.55812e-06
2.96802e-08
8.56292e-06
2.95168e-08
8.56756e-06
2.88761e-08
8.57203e-06
2.79225e-08
8.57632e-06
2.67641e-08
8.58043e-06
2.54727e-08
8.58437e-06
2.40987e-08
8.58814e-06
2.26771e-08
8.59176e-06
2.12309e-08
8.5952e-06
1.97766e-08
8.59849e-06
1.83233e-08
1.6899e-08
8.6016e-06
1.04003e-05
3.89223e-09
1.04033e-05
1.08949e-08
1.04075e-05
1.62983e-08
1.04126e-05
1.99977e-08
1.0418e-05
2.22927e-08
1.04236e-05
2.35597e-08
1.04292e-05
2.40592e-08
1.04347e-05
2.39781e-08
1.04401e-05
2.34809e-08
1.04453e-05
2.27006e-08
1.04504e-05
2.17307e-08
1.04552e-05
2.06349e-08
1.04599e-05
1.94586e-08
1.04643e-05
1.82348e-08
1.04685e-05
1.69868e-08
1.04726e-05
1.57322e-08
1.04764e-05
1.44817e-08
1.3264e-08
1.04801e-05
1.26779e-05
2.78209e-09
1.2681e-05
7.82511e-09
1.26855e-05
1.17725e-08
1.26909e-05
1.45452e-08
1.26969e-05
1.63029e-08
1.27032e-05
1.72844e-08
1.27096e-05
1.76793e-08
1.27159e-05
1.76268e-08
1.27222e-05
1.72444e-08
1.27283e-05
1.663e-08
1.27341e-05
1.58564e-08
1.27398e-05
1.49755e-08
1.27452e-05
1.40249e-08
1.27504e-05
1.3033e-08
1.27554e-05
1.20207e-08
1.27601e-05
1.10048e-08
1.27646e-05
9.99563e-09
9.01991e-09
1.27688e-05
1.54543e-05
1.62594e-09
1.54576e-05
4.60123e-09
1.54624e-05
6.94391e-09
1.54683e-05
8.60675e-09
1.5475e-05
9.66345e-09
1.5482e-05
1.02388e-08
1.54892e-05
1.04422e-08
1.54965e-05
1.03575e-08
1.55037e-05
1.00553e-08
1.55107e-05
9.59547e-09
1.55176e-05
9.02507e-09
1.55242e-05
8.37902e-09
1.55305e-05
7.68371e-09
1.55366e-05
6.95966e-09
1.55424e-05
6.22288e-09
1.55479e-05
5.48655e-09
1.55531e-05
4.75885e-09
4.06247e-09
1.55581e-05
1.88389e-05
3.83921e-10
1.88424e-05
1.09938e-09
1.88477e-05
1.63964e-09
1.88543e-05
1.99261e-09
1.88618e-05
2.17804e-09
1.88698e-05
2.22343e-09
1.88781e-05
2.15059e-09
1.88865e-05
1.97934e-09
1.88948e-05
1.72993e-09
1.8903e-05
1.42089e-09
1.89109e-05
1.06777e-09
1.89186e-05
6.83557e-10
1.8926e-05
2.79365e-10
1.89331e-05
-1.35226e-10
1.89399e-05
-5.52072e-10
1.89463e-05
-9.63776e-10
1.89525e-05
-1.36608e-09
-1.7419e-09
1.89583e-05
2.29648e-05
-1.04482e-09
2.29688e-05
-2.969e-09
2.2975e-05
-4.55904e-09
2.29828e-05
-5.77261e-09
2.29916e-05
-6.63035e-09
2.3001e-05
-7.21873e-09
2.30108e-05
-7.62514e-09
2.30207e-05
-7.90415e-09
2.30305e-05
-8.09237e-09
2.30402e-05
-8.22089e-09
2.30496e-05
-8.31331e-09
2.30586e-05
-8.38396e-09
2.30673e-05
-8.44066e-09
2.30757e-05
-8.48762e-09
2.30837e-05
-8.52683e-09
2.30913e-05
-8.55839e-09
2.30985e-05
-8.583e-09
-8.59033e-09
2.31053e-05
1.68118e-05
-2.16602e-09
1.6815e-05
-6.13627e-09
1.68198e-05
-9.3836e-09
1.68258e-05
-1.17627e-08
1.68325e-05
-1.33328e-08
1.68396e-05
-1.43218e-08
1.68469e-05
-1.49175e-08
1.68542e-05
-1.52236e-08
1.68615e-05
-1.5319e-08
1.68685e-05
-1.52756e-08
1.68753e-05
-1.51462e-08
1.68819e-05
-1.49635e-08
1.68882e-05
-1.47482e-08
1.68943e-05
-1.45141e-08
1.69e-05
-1.427e-08
1.69055e-05
-1.40204e-08
1.69106e-05
-1.37689e-08
-1.3509e-08
1.69156e-05
1.46356e-05
-3.24271e-09
1.46387e-05
-9.21922e-09
1.46434e-05
-1.40931e-08
1.46492e-05
-1.74997e-08
1.46555e-05
-1.96111e-08
1.4662e-05
-2.08772e-08
1.46687e-05
-2.15684e-08
1.46753e-05
-2.18207e-08
1.46817e-05
-2.1765e-08
1.46879e-05
-2.15179e-08
1.4694e-05
-2.11547e-08
1.46997e-05
-2.07204e-08
1.47052e-05
-2.02449e-08
1.47104e-05
-1.97495e-08
1.47154e-05
-1.92474e-08
1.47201e-05
-1.87462e-08
1.47246e-05
-1.82508e-08
-1.77575e-08
1.47289e-05
1.27411e-05
-4.25076e-09
1.27443e-05
-1.23427e-08
1.27491e-05
-1.89195e-08
1.27547e-05
-2.31401e-08
1.27607e-05
-2.55842e-08
1.27669e-05
-2.70266e-08
1.2773e-05
-2.77301e-08
1.2779e-05
-2.78442e-08
1.27848e-05
-2.75759e-08
1.27904e-05
-2.70905e-08
1.27957e-05
-2.64777e-08
1.28008e-05
-2.57889e-08
1.28056e-05
-2.5061e-08
1.28102e-05
-2.43199e-08
1.28145e-05
-2.35809e-08
1.28186e-05
-2.28524e-08
1.28225e-05
-2.21394e-08
-2.14392e-08
1.28262e-05
1.10918e-05
-5.09143e-09
1.1095e-05
-1.5561e-08
1.11001e-05
-2.40429e-08
1.11057e-05
-2.87603e-08
1.11115e-05
-3.13131e-08
1.11173e-05
-3.28319e-08
1.1123e-05
-3.34485e-08
1.11285e-05
-3.33448e-08
1.11337e-05
-3.28231e-08
1.11387e-05
-3.20809e-08
1.11435e-05
-3.12098e-08
1.11479e-05
-3.02665e-08
1.11522e-05
-2.92941e-08
1.11562e-05
-2.83212e-08
1.11599e-05
-2.7363e-08
1.11635e-05
-2.64277e-08
1.11669e-05
-2.55193e-08
-2.46358e-08
1.11701e-05
9.65581e-06
-5.68889e-09
9.65924e-06
-1.89878e-08
9.66458e-06
-2.93868e-08
9.67008e-06
-3.42536e-08
9.67563e-06
-3.68647e-08
9.68118e-06
-3.83829e-08
9.6865e-06
-3.87715e-08
9.69152e-06
-3.83618e-08
9.69625e-06
-3.75563e-08
9.70072e-06
-3.6549e-08
9.70493e-06
-3.54189e-08
9.70889e-06
-3.42254e-08
9.71261e-06
-3.30161e-08
9.71611e-06
-3.18204e-08
9.7194e-06
-3.06536e-08
9.72249e-06
-2.95227e-08
9.72541e-06
-2.843e-08
-2.73717e-08
9.72814e-06
8.40529e-06
-5.63101e-09
8.40963e-06
-2.33264e-08
8.41487e-06
-3.46222e-08
8.41989e-06
-3.92769e-08
8.42525e-06
-4.22237e-08
8.43065e-06
-4.37825e-08
8.43573e-06
-4.38477e-08
8.44042e-06
-4.30578e-08
8.44478e-06
-4.19148e-08
8.44883e-06
-4.05948e-08
8.45258e-06
-3.91676e-08
8.45605e-06
-3.76954e-08
8.45926e-06
-3.62279e-08
8.46223e-06
-3.47929e-08
8.46498e-06
-3.34055e-08
8.46753e-06
-3.20718e-08
8.46989e-06
-3.07939e-08
-2.95684e-08
8.47209e-06
7.31449e-06
-2.84119e-09
7.32119e-06
-3.00209e-08
7.32674e-06
-4.01739e-08
7.33168e-06
-4.42208e-08
7.33708e-06
-4.76148e-08
7.34239e-06
-4.90958e-08
7.34726e-06
-4.8717e-08
7.35166e-06
-4.74616e-08
7.35563e-06
-4.58834e-08
7.35918e-06
-4.41404e-08
7.36232e-06
-4.2314e-08
7.3651e-06
-4.04763e-08
7.36756e-06
-3.868e-08
7.36971e-06
-3.69495e-08
7.37161e-06
-3.52999e-08
7.37327e-06
-3.37339e-08
7.37473e-06
-3.22519e-08
-3.08448e-08
7.376e-06
6.36243e-06
4.7928e-09
6.3719e-06
-3.94854e-08
6.37932e-06
-4.75969e-08
6.38595e-06
-5.08539e-08
6.39223e-06
-5.38912e-08
6.39754e-06
-5.44026e-08
6.40182e-06
-5.30042e-08
6.4053e-06
-5.09345e-08
6.40809e-06
-4.86755e-08
6.41026e-06
-4.63167e-08
6.41189e-06
-4.39378e-08
6.41303e-06
-4.16147e-08
6.41374e-06
-3.93984e-08
6.4141e-06
-3.73071e-08
6.41416e-06
-3.53546e-08
6.41396e-06
-3.3537e-08
6.41356e-06
-3.18551e-08
-3.02894e-08
6.41301e-06
5.54131e-06
8.94923e-09
5.55032e-06
-4.85019e-08
5.55833e-06
-5.5607e-08
5.56604e-06
-5.85574e-08
5.57249e-06
-6.03477e-08
5.57681e-06
-5.8723e-08
5.57905e-06
-5.52397e-08
5.5796e-06
-5.14876e-08
5.57884e-06
-4.79157e-08
5.57705e-06
-4.45244e-08
5.57445e-06
-4.1337e-08
5.57123e-06
-3.83941e-08
5.56753e-06
-3.5704e-08
5.56349e-06
-3.32585e-08
5.55919e-06
-3.10548e-08
5.55473e-06
-2.90758e-08
5.55019e-06
-2.73232e-08
-2.5748e-08
5.54565e-06
4.86021e-06
-2.36572e-08
4.86538e-06
-5.36683e-08
4.86523e-06
-5.54557e-08
4.86216e-06
-5.54935e-08
4.85699e-06
-5.51721e-08
4.84948e-06
-5.12168e-08
4.83979e-06
-4.55427e-08
4.82839e-06
-4.00898e-08
4.8158e-06
-3.53329e-08
4.80252e-06
-3.12401e-08
4.78892e-06
-2.77324e-08
4.77527e-06
-2.47496e-08
4.76178e-06
-2.22134e-08
4.74858e-06
-2.00529e-08
4.73574e-06
-1.8222e-08
4.72335e-06
-1.66875e-08
4.71152e-06
-1.54871e-08
-1.51402e-08
4.70091e-06
4.17902e-06
4.12535e-06
4.06989e-06
4.0144e-06
3.95923e-06
3.90801e-06
3.86247e-06
3.82238e-06
3.78705e-06
3.75581e-06
3.72807e-06
3.70332e-06
3.68111e-06
3.66106e-06
3.64284e-06
3.62615e-06
3.61066e-06
3.59552e-06
1.06492e-08
-1.0673e-08
2.36096e-08
-1.29898e-08
3.30101e-08
-9.43499e-09
3.73808e-08
-4.3945e-09
3.65623e-08
7.86341e-10
3.11437e-08
5.39486e-09
2.20224e-08
9.08983e-09
1.01187e-08
1.18805e-08
-3.85949e-09
1.39489e-08
-1.94365e-08
1.5558e-08
-3.63494e-08
1.689e-08
-5.44102e-08
1.80466e-08
-7.35405e-08
1.91128e-08
-9.36829e-08
2.01313e-08
-1.14816e-07
2.112e-08
-1.36911e-07
2.20856e-08
-1.5995e-07
2.30296e-08
-1.83911e-07
2.39513e-08
-2.08768e-07
2.48488e-08
-2.34502e-07
2.57189e-08
-2.61067e-07
2.65564e-08
-2.88443e-07
2.73535e-08
-3.16559e-07
2.81035e-08
-3.45391e-07
2.87992e-08
-3.74844e-07
2.94404e-08
-4.04914e-07
3.00293e-08
-4.355e-07
3.05783e-08
-4.66637e-07
3.10986e-08
-4.98245e-07
3.16065e-08
-5.30376e-07
3.21044e-08
-5.62994e-07
3.2627e-08
-5.9619e-07
3.31867e-08
-6.29743e-07
3.35678e-08
-6.63749e-07
3.40116e-08
-6.98792e-07
3.506e-08
-7.3446e-07
3.5682e-08
-7.70643e-07
3.61971e-08
-8.09154e-07
3.8525e-08
-8.51624e-07
4.24776e-08
-8.95648e-07
4.40313e-08
-9.39095e-07
4.3448e-08
-9.87498e-07
4.84056e-08
-1.03097e-06
4.34746e-08
-1.06485e-06
3.38741e-08
-1.1036e-06
3.8746e-08
-1.14505e-06
4.14522e-08
-1.18793e-06
4.28757e-08
-1.23144e-06
4.35082e-08
-1.27519e-06
4.37502e-08
-1.31898e-06
4.3786e-08
-1.36268e-06
4.37069e-08
-1.40624e-06
4.3556e-08
-1.4496e-06
4.33586e-08
-1.49273e-06
4.31279e-08
-1.5356e-06
4.28718e-08
-1.5782e-06
4.25942e-08
-1.6205e-06
4.2297e-08
-1.66248e-06
4.19805e-08
-1.70412e-06
4.16441e-08
-1.74541e-06
4.12866e-08
-1.78632e-06
4.09066e-08
-1.82683e-06
4.05021e-08
-1.8669e-06
4.00713e-08
-1.90652e-06
3.96122e-08
-1.94565e-06
3.91229e-08
-1.98425e-06
3.86014e-08
-2.0223e-06
3.80462e-08
-2.05976e-06
3.74553e-08
-2.09659e-06
3.68279e-08
-2.13276e-06
3.6162e-08
-2.16821e-06
3.54572e-08
-2.20293e-06
3.47117e-08
-2.23686e-06
3.39256e-08
-2.26996e-06
3.30974e-08
-2.30219e-06
3.22275e-08
-2.33351e-06
3.13146e-08
-2.36387e-06
3.03598e-08
-2.39324e-06
2.9362e-08
-2.42157e-06
2.83227e-08
-2.44882e-06
2.72406e-08
-2.47494e-06
2.61175e-08
-2.49989e-06
2.49525e-08
-2.52364e-06
2.37474e-08
-2.54615e-06
2.25011e-08
-2.56737e-06
2.12155e-08
-2.58726e-06
1.98896e-08
-2.60579e-06
1.85251e-08
-2.62291e-06
1.712e-08
-2.63858e-06
1.56744e-08
-2.65276e-06
1.41854e-08
-2.6654e-06
1.26484e-08
-2.67646e-06
1.10582e-08
-2.68587e-06
9.40937e-09
-2.69356e-06
7.6939e-09
-2.69946e-06
5.89817e-09
-2.70347e-06
4.00333e-09
-2.70548e-06
2.00708e-09
-2.70547e-06
-1.28529e-11
-2.70363e-06
-1.84194e-09
-2.70016e-06
-3.47386e-09
-2.6951e-06
-5.06546e-09
-2.68846e-06
-6.64616e-09
-2.68024e-06
-8.22941e-09
-2.67044e-06
-9.81807e-09
-2.65904e-06
-1.14104e-08
-2.64605e-06
-1.30062e-08
-2.63146e-06
-1.46021e-08
-2.61527e-06
-1.61981e-08
-2.59749e-06
-1.77907e-08
-2.57812e-06
-1.938e-08
-2.55716e-06
-2.09624e-08
-2.53463e-06
-2.25382e-08
-2.51053e-06
-2.41033e-08
-2.48488e-06
-2.56582e-08
-2.45768e-06
-2.71987e-08
-2.42895e-06
-2.87254e-08
-2.39872e-06
-3.02338e-08
-2.36699e-06
-3.17242e-08
-2.33379e-06
-3.31927e-08
-2.29915e-06
-3.464e-08
-2.26308e-06
-3.60627e-08
-2.22563e-06
-3.74609e-08
-2.1868e-06
-3.88299e-08
-2.14664e-06
-4.01692e-08
-2.10516e-06
-4.14744e-08
-2.06241e-06
-4.27467e-08
-2.01842e-06
-4.3983e-08
-1.97323e-06
-4.51853e-08
-1.92687e-06
-4.63496e-08
-1.87938e-06
-4.74769e-08
-1.8308e-06
-4.85657e-08
-1.78117e-06
-4.96124e-08
-1.73054e-06
-5.06095e-08
-1.67895e-06
-5.15639e-08
-1.62645e-06
-5.2476e-08
-1.57308e-06
-5.33418e-08
-1.5189e-06
-5.41582e-08
-1.46394e-06
-5.49257e-08
-1.40827e-06
-5.56444e-08
-1.35194e-06
-5.63135e-08
-1.29498e-06
-5.69326e-08
-1.23747e-06
-5.75003e-08
-1.17943e-06
-5.80172e-08
-1.12094e-06
-5.84827e-08
-1.06203e-06
-5.8898e-08
-1.00276e-06
-5.92623e-08
-9.43184e-07
-5.95774e-08
-8.83341e-07
-5.98425e-08
-8.23284e-07
-6.006e-08
-7.6306e-07
-6.02291e-08
-7.02716e-07
-6.03528e-08
-6.42297e-07
-6.04305e-08
-5.81848e-07
-6.04653e-08
-5.21409e-07
-6.04568e-08
-4.61024e-07
-6.04082e-08
-4.00729e-07
-6.03189e-08
-3.40565e-07
-6.01917e-08
-2.80567e-07
-6.00256e-08
-2.20776e-07
-5.98234e-08
-1.61224e-07
-5.95836e-08
-1.01943e-07
-5.93163e-08
-4.29792e-08
-5.89974e-08
1.55968e-08
-5.86126e-08
7.38182e-08
-5.82548e-08
1.31653e-07
-5.78699e-08
1.89021e-07
-5.73995e-08
2.45926e-07
-5.69389e-08
3.02383e-07
-5.64882e-08
3.58392e-07
-5.60416e-08
4.13947e-07
-5.55853e-08
4.69019e-07
-5.51042e-08
5.2356e-07
-5.45715e-08
5.77475e-07
-5.39457e-08
6.30595e-07
-5.31504e-08
6.82607e-07
-5.2042e-08
7.32897e-07
-5.03195e-08
7.80158e-07
-4.72899e-08
8.21233e-07
-4.11011e-08
8.48042e-07
-2.68322e-08
1.80807e-08
8.29941e-07
8.8322e-09
-1.95235e-08
1.19176e-08
-1.60954e-08
1.03814e-08
-7.91674e-09
5.67026e-09
3.03812e-10
-1.56505e-09
8.00668e-09
-1.11177e-08
1.49356e-08
-2.29643e-08
2.09221e-08
-3.70201e-08
2.59252e-08
-5.31217e-08
3.00377e-08
-7.10118e-08
3.34384e-08
-9.04561e-08
3.63233e-08
-1.11278e-07
3.88601e-08
-1.33347e-07
4.11733e-08
-1.56568e-07
4.33449e-08
-1.80879e-07
4.54239e-08
-2.06238e-07
4.74382e-08
-2.32617e-07
4.94027e-08
-2.59997e-07
5.1326e-08
-2.88366e-07
5.32119e-08
-3.17717e-07
5.5062e-08
-3.48041e-07
5.68748e-08
-3.79347e-07
5.86474e-08
-4.11627e-07
6.03759e-08
-4.44902e-07
6.20561e-08
-4.79158e-07
6.36864e-08
-5.14416e-07
6.52676e-08
-5.50657e-07
6.68109e-08
-5.87921e-07
6.83433e-08
-6.26217e-07
6.98977e-08
-6.65599e-07
7.14742e-08
-7.06028e-07
7.30569e-08
-7.47488e-07
7.46442e-08
-7.90139e-07
7.62258e-08
-8.33971e-07
7.78495e-08
-8.7846e-07
7.95593e-08
-9.23953e-07
8.11846e-08
-9.70627e-07
8.28799e-08
-1.0171e-06
8.50036e-08
-1.06171e-06
8.70956e-08
-1.10586e-06
8.81879e-08
-1.15105e-06
8.86377e-08
-1.1919e-06
8.92566e-08
-1.23551e-06
8.7083e-08
-1.28538e-06
8.37435e-08
-1.32998e-06
8.33382e-08
-1.372e-06
8.34717e-08
-1.41268e-06
8.35636e-08
-1.45265e-06
8.3472e-08
-1.49211e-06
8.321e-08
-1.53115e-06
8.28256e-08
-1.5698e-06
8.23559e-08
-1.60807e-06
8.18254e-08
-1.64596e-06
8.12491e-08
-1.68347e-06
8.06356e-08
-1.72059e-06
7.99892e-08
-1.7573e-06
7.93113e-08
-1.79361e-06
7.86015e-08
-1.82949e-06
7.78579e-08
-1.86492e-06
7.70778e-08
-1.8999e-06
7.62582e-08
-1.93439e-06
7.53957e-08
-1.96838e-06
7.44867e-08
-2.00183e-06
7.35276e-08
-2.03474e-06
7.25149e-08
-2.06706e-06
7.14452e-08
-2.09878e-06
7.03156e-08
-2.12986e-06
6.9123e-08
-2.16027e-06
6.7865e-08
-2.18998e-06
6.65392e-08
-2.21897e-06
6.51435e-08
-2.24719e-06
6.36763e-08
-2.27462e-06
6.21361e-08
-2.30121e-06
6.05217e-08
-2.32695e-06
5.88322e-08
-2.35179e-06
5.70672e-08
-2.37571e-06
5.52261e-08
-2.39866e-06
5.33093e-08
-2.42062e-06
5.13167e-08
-2.44155e-06
4.9249e-08
-2.46142e-06
4.71064e-08
-2.48019e-06
4.489e-08
-2.49784e-06
4.26003e-08
-2.51434e-06
4.02388e-08
-2.52964e-06
3.78058e-08
-2.54373e-06
3.53031e-08
-2.55658e-06
3.27313e-08
-2.56815e-06
3.00921e-08
-2.57841e-06
2.73858e-08
-2.58735e-06
2.46134e-08
-2.59493e-06
2.17746e-08
-2.60115e-06
1.8869e-08
-2.60599e-06
1.58978e-08
-2.60944e-06
1.28627e-08
-2.61152e-06
9.76727e-09
-2.61224e-06
6.6176e-09
-2.61167e-06
3.43223e-09
-2.60992e-06
2.52115e-10
-2.60706e-06
-2.87253e-09
-2.60294e-06
-5.95954e-09
-2.59737e-06
-9.0551e-09
-2.59027e-06
-1.21643e-08
-2.58164e-06
-1.5286e-08
-2.57145e-06
-1.84222e-08
-2.55971e-06
-2.15708e-08
-2.5464e-06
-2.47291e-08
-2.53152e-06
-2.78933e-08
-2.51507e-06
-3.10598e-08
-2.49705e-06
-3.42251e-08
-2.47747e-06
-3.73854e-08
-2.45631e-06
-4.05377e-08
-2.4336e-06
-4.3678e-08
-2.40934e-06
-4.68031e-08
-2.38354e-06
-4.9909e-08
-2.35621e-06
-5.29926e-08
-2.32736e-06
-5.60496e-08
-2.29701e-06
-5.9077e-08
-2.26517e-06
-6.20704e-08
-2.23187e-06
-6.50261e-08
-2.19711e-06
-6.79405e-08
-2.16094e-06
-7.08109e-08
-2.12337e-06
-7.36337e-08
-2.08443e-06
-7.64055e-08
-2.04414e-06
-7.91211e-08
-2.00253e-06
-8.17762e-08
-1.95964e-06
-8.43661e-08
-1.9155e-06
-8.68888e-08
-1.87014e-06
-8.9341e-08
-1.8236e-06
-9.17226e-08
-1.77591e-06
-9.40306e-08
-1.72711e-06
-9.62646e-08
-1.67725e-06
-9.84214e-08
-1.62636e-06
-1.00493e-07
-1.57449e-06
-1.0247e-07
-1.52167e-06
-1.04361e-07
-1.46797e-06
-1.06165e-07
-1.41342e-06
-1.07878e-07
-1.35807e-06
-1.09492e-07
-1.30197e-06
-1.11009e-07
-1.24517e-06
-1.12428e-07
-1.18773e-06
-1.13747e-07
-1.12969e-06
-1.14965e-07
-1.07109e-06
-1.16082e-07
-1.01201e-06
-1.17097e-07
-9.52474e-07
-1.1801e-07
-8.92545e-07
-1.18822e-07
-8.32272e-07
-1.19532e-07
-7.71705e-07
-1.20143e-07
-7.10893e-07
-1.20655e-07
-6.49884e-07
-1.2107e-07
-5.88726e-07
-1.2139e-07
-5.27466e-07
-1.21617e-07
-4.6615e-07
-1.21754e-07
-4.04821e-07
-1.21802e-07
-3.43521e-07
-1.21767e-07
-2.82291e-07
-1.21648e-07
-2.21171e-07
-1.21452e-07
-1.60199e-07
-1.21178e-07
-9.94089e-08
-1.2083e-07
-3.88348e-08
-1.20413e-07
2.14969e-08
-1.19932e-07
8.15587e-08
-1.19394e-07
1.41335e-07
-1.18791e-07
2.0081e-07
-1.18104e-07
2.59882e-07
-1.17343e-07
3.18507e-07
-1.16511e-07
3.76726e-07
-1.15636e-07
4.34535e-07
-1.14764e-07
4.91929e-07
-1.139e-07
5.48902e-07
-1.13032e-07
6.0544e-07
-1.1214e-07
6.6151e-07
-1.11192e-07
7.1706e-07
-1.10139e-07
7.71993e-07
-1.08896e-07
8.26143e-07
-1.07318e-07
8.79208e-07
-1.05125e-07
9.30655e-07
-1.01784e-07
9.79425e-07
-9.6077e-08
1.02386e-06
-8.55477e-08
1.06061e-06
-6.36046e-08
-1.14536e-08
1.09013e-06
4.28939e-10
-1.99652e-08
-5.30918e-09
-1.03706e-08
-1.36881e-08
4.5146e-10
-2.37586e-08
1.03673e-08
-3.51931e-08
1.94329e-08
-4.79306e-08
2.76666e-08
-6.20485e-08
3.50327e-08
-7.76457e-08
4.15161e-08
-9.47799e-08
4.71649e-08
-1.13436e-07
5.20886e-08
-1.33548e-07
5.64294e-08
-1.55024e-07
6.03311e-08
-1.77773e-07
6.39168e-08
-2.01714e-07
6.72811e-08
-2.26785e-07
7.04903e-08
-2.5294e-07
7.35892e-08
-2.80147e-07
7.6606e-08
-3.08384e-07
7.95588e-08
-3.37633e-07
8.24585e-08
-3.67887e-07
8.53115e-08
-3.99136e-07
8.81206e-08
-4.3138e-07
9.08858e-08
-4.64613e-07
9.3605e-08
-4.98842e-07
9.62753e-08
-5.34053e-07
9.88932e-08
-5.70253e-07
1.01456e-07
-6.07412e-07
1.03966e-07
-6.45505e-07
1.06425e-07
-6.84436e-07
1.08827e-07
-7.2412e-07
1.11152e-07
-7.64441e-07
1.13379e-07
-8.05284e-07
1.15486e-07
-8.46505e-07
1.17451e-07
-8.87923e-07
1.19272e-07
-9.29293e-07
1.20935e-07
-9.70482e-07
1.2238e-07
-1.01125e-06
1.23658e-07
-1.05106e-06
1.2481e-07
-1.08959e-06
1.2563e-07
-1.12729e-06
1.25892e-07
-1.1643e-06
1.25641e-07
-1.20011e-06
1.25066e-07
-1.23676e-06
1.23736e-07
-1.27503e-06
1.22012e-07
-1.31251e-06
1.20821e-07
-1.34904e-06
1.19999e-07
-1.3848e-06
1.19325e-07
-1.42e-06
1.18672e-07
-1.45478e-06
1.17987e-07
-1.48921e-06
1.17257e-07
-1.52334e-06
1.16483e-07
-1.55718e-06
1.15666e-07
-1.59074e-06
1.1481e-07
-1.62402e-06
1.13915e-07
-1.65702e-06
1.1298e-07
-1.68971e-06
1.12004e-07
-1.72209e-06
1.10982e-07
-1.75414e-06
1.09911e-07
-1.78585e-06
1.08785e-07
-1.8172e-06
1.076e-07
-1.84815e-06
1.06351e-07
-1.8787e-06
1.05032e-07
-1.90881e-06
1.03639e-07
-1.93846e-06
1.02166e-07
-1.96763e-06
1.00609e-07
-1.99628e-06
9.89642e-08
-2.02439e-06
9.7227e-08
-2.05192e-06
9.5394e-08
-2.07884e-06
9.34622e-08
-2.10513e-06
9.14287e-08
-2.13074e-06
8.92912e-08
-2.15566e-06
8.70477e-08
-2.17983e-06
8.46966e-08
-2.20324e-06
8.22368e-08
-2.22584e-06
7.96675e-08
-2.24761e-06
7.69883e-08
-2.2685e-06
7.41994e-08
-2.28848e-06
7.13009e-08
-2.30753e-06
6.82935e-08
-2.3256e-06
6.51781e-08
-2.34267e-06
6.19561e-08
-2.3587e-06
5.86286e-08
-2.37366e-06
5.51975e-08
-2.38752e-06
5.16646e-08
-2.40025e-06
4.80319e-08
-2.41183e-06
4.43019e-08
-2.42221e-06
4.0477e-08
-2.43139e-06
3.65598e-08
-2.43933e-06
3.25533e-08
-2.44601e-06
2.84604e-08
-2.45142e-06
2.42844e-08
-2.45555e-06
2.00304e-08
-2.4584e-06
1.57057e-08
-2.45995e-06
1.13191e-08
-2.46022e-06
6.88306e-09
-2.4592e-06
2.41548e-09
-2.45689e-06
-2.06061e-09
-2.45323e-06
-6.53595e-09
-2.44816e-06
-1.10341e-08
-2.44164e-06
-1.55754e-08
-2.43366e-06
-2.01543e-08
-2.42418e-06
-2.47648e-08
-2.41321e-06
-2.9402e-08
-2.40073e-06
-3.40602e-08
-2.38673e-06
-3.87341e-08
-2.37121e-06
-4.34176e-08
-2.35417e-06
-4.81056e-08
-2.33561e-06
-5.2792e-08
-2.31553e-06
-5.74721e-08
-2.29393e-06
-6.214e-08
-2.27082e-06
-6.6791e-08
-2.24621e-06
-7.14191e-08
-2.2201e-06
-7.60196e-08
-2.19251e-06
-8.05865e-08
-2.16344e-06
-8.5115e-08
-2.13292e-06
-8.95991e-08
-2.10096e-06
-9.40335e-08
-2.06757e-06
-9.84123e-08
-2.03278e-06
-1.0273e-07
-1.9966e-06
-1.06983e-07
-1.95907e-06
-1.11165e-07
-1.92021e-06
-1.15271e-07
-1.88004e-06
-1.19294e-07
-1.83859e-06
-1.23228e-07
-1.79589e-06
-1.27066e-07
-1.75198e-06
-1.30804e-07
-1.70688e-06
-1.34438e-07
-1.66063e-06
-1.37965e-07
-1.61328e-06
-1.41383e-07
-1.56484e-06
-1.44691e-07
-1.51538e-06
-1.47883e-07
-1.46491e-06
-1.5095e-07
-1.41349e-06
-1.53881e-07
-1.36117e-06
-1.56681e-07
-1.30797e-06
-1.59351e-07
-1.25396e-06
-1.61883e-07
-1.19917e-06
-1.64271e-07
-1.14365e-06
-1.66513e-07
-1.08746e-06
-1.68609e-07
-1.03065e-06
-1.70556e-07
-9.73253e-07
-1.72353e-07
-9.15331e-07
-1.73999e-07
-8.56931e-07
-1.75493e-07
-7.98103e-07
-1.76835e-07
-7.38897e-07
-1.78025e-07
-6.79362e-07
-1.79065e-07
-6.19548e-07
-1.79956e-07
-5.59503e-07
-1.80699e-07
-4.99275e-07
-1.81298e-07
-4.38911e-07
-1.81755e-07
-3.78457e-07
-1.82073e-07
-3.17957e-07
-1.82256e-07
-2.57454e-07
-1.82308e-07
-1.9699e-07
-1.82233e-07
-1.36606e-07
-1.82037e-07
-7.63374e-08
-1.81724e-07
-1.62191e-08
-1.813e-07
4.3716e-08
-1.80769e-07
1.03432e-07
-1.80134e-07
1.62899e-07
-1.79402e-07
2.22085e-07
-1.78584e-07
2.80972e-07
-1.77682e-07
3.39553e-07
-1.76689e-07
3.97803e-07
-1.75598e-07
4.55702e-07
-1.74414e-07
5.13241e-07
-1.73179e-07
5.70404e-07
-1.71931e-07
6.27178e-07
-1.70678e-07
6.83548e-07
-1.69407e-07
7.39497e-07
-1.68092e-07
7.94991e-07
-1.6669e-07
8.49978e-07
-1.6513e-07
9.04366e-07
-1.6329e-07
9.58005e-07
-1.6096e-07
1.01064e-06
-1.5776e-07
1.06183e-06
-1.52984e-07
1.11093e-06
-1.4518e-07
1.15703e-06
-1.31654e-07
1.19972e-06
-1.06294e-07
-5.53546e-08
1.24361e-06
-7.40917e-09
-1.25664e-08
-1.90334e-08
1.24451e-09
-3.198e-08
1.3391e-08
-4.57437e-08
2.41261e-08
-6.02335e-08
3.39176e-08
-7.549e-08
4.2919e-08
-9.16249e-08
5.11628e-08
-1.08768e-07
5.86553e-08
-1.27032e-07
6.54252e-08
-1.46486e-07
7.15387e-08
-1.67151e-07
7.70903e-08
-1.8901e-07
8.21863e-08
-2.12024e-07
8.69281e-08
-2.36149e-07
9.14023e-08
-2.61338e-07
9.56764e-08
-2.87552e-07
9.97997e-08
-3.14754e-07
1.03806e-07
-3.42916e-07
1.07718e-07
-3.72008e-07
1.11549e-07
-4.02005e-07
1.15306e-07
-4.32877e-07
1.18992e-07
-4.64598e-07
1.22604e-07
-4.97129e-07
1.26136e-07
-5.30439e-07
1.2958e-07
-5.64469e-07
1.32924e-07
-5.99171e-07
1.36152e-07
-6.34456e-07
1.39251e-07
-6.70234e-07
1.42197e-07
-7.06371e-07
1.44964e-07
-7.42741e-07
1.47519e-07
-7.79198e-07
1.49837e-07
-8.15612e-07
1.519e-07
-8.51849e-07
1.53692e-07
-8.87781e-07
1.55206e-07
-9.23285e-07
1.56442e-07
-9.58302e-07
1.574e-07
-9.92743e-07
1.58101e-07
-1.02648e-06
1.58548e-07
-1.05953e-06
1.58682e-07
-1.09209e-06
1.58447e-07
-1.12431e-06
1.57861e-07
-1.15623e-06
1.5699e-07
-1.18832e-06
1.55823e-07
-1.22081e-06
1.545e-07
-1.25326e-06
1.53271e-07
-1.28544e-06
1.5218e-07
-1.3173e-06
1.51183e-07
-1.34886e-06
1.5023e-07
-1.38015e-06
1.49284e-07
-1.41122e-06
1.48323e-07
-1.44207e-06
1.47336e-07
-1.47272e-06
1.46316e-07
-1.50317e-06
1.45257e-07
-1.53341e-06
1.44155e-07
-1.56343e-06
1.43004e-07
-1.59323e-06
1.41798e-07
-1.62278e-06
1.40532e-07
-1.65207e-06
1.39199e-07
-1.68108e-06
1.37793e-07
-1.70978e-06
1.36306e-07
-1.73817e-06
1.34732e-07
-1.7662e-06
1.33065e-07
-1.79386e-06
1.31297e-07
-1.82112e-06
1.29424e-07
-1.84795e-06
1.27439e-07
-1.87432e-06
1.25336e-07
-1.90021e-06
1.23112e-07
-1.92558e-06
1.20761e-07
-1.95039e-06
1.18279e-07
-1.97463e-06
1.15664e-07
-1.99825e-06
1.12912e-07
-2.02123e-06
1.1002e-07
-2.04352e-06
1.06988e-07
-2.0651e-06
1.03813e-07
-2.08592e-06
1.00494e-07
-2.10597e-06
9.70316e-08
-2.1252e-06
9.34253e-08
-2.14357e-06
8.96755e-08
-2.16106e-06
8.57834e-08
-2.17764e-06
8.17501e-08
-2.19326e-06
7.75775e-08
-2.2079e-06
7.32675e-08
-2.22152e-06
6.88226e-08
-2.23411e-06
6.42455e-08
-2.24562e-06
5.95395e-08
-2.25602e-06
5.4708e-08
-2.2653e-06
4.9755e-08
-2.27343e-06
4.46847e-08
-2.28038e-06
3.9502e-08
-2.28612e-06
3.42117e-08
-2.29066e-06
2.882e-08
-2.29396e-06
2.33339e-08
-2.29602e-06
1.77623e-08
-2.29682e-06
1.21153e-08
-2.29634e-06
6.40476e-09
-2.29457e-06
6.43494e-10
-2.29148e-06
-5.15742e-09
-2.28702e-06
-1.09976e-08
-2.28116e-06
-1.68893e-08
-2.2739e-06
-2.28395e-08
-2.26522e-06
-2.88425e-08
-2.2551e-06
-3.48904e-08
-2.24353e-06
-4.09758e-08
-2.23051e-06
-4.70902e-08
-2.21602e-06
-5.32264e-08
-2.20007e-06
-5.9376e-08
-2.18265e-06
-6.55322e-08
-2.16376e-06
-7.16871e-08
-2.1434e-06
-7.78342e-08
-2.12158e-06
-8.39657e-08
-2.09829e-06
-9.00752e-08
-2.07356e-06
-9.61551e-08
-2.04738e-06
-1.02199e-07
-2.01977e-06
-1.08199e-07
-1.99074e-06
-1.14148e-07
-1.9603e-06
-1.2004e-07
-1.92847e-06
-1.25866e-07
-1.89526e-06
-1.3162e-07
-1.86069e-06
-1.37294e-07