/*--------------------------------*- C++ -*----------------------------------*\
  =========                 |
  \\      /  F ield         | OpenFOAM: The Open Source CFD Toolbox
   \\    /   O peration     | Website:  https://openfoam.org
    \\  /    A nd           | Version:  12
     \\/     M anipulation  |
\*---------------------------------------------------------------------------*/
FoamFile
{
    format      ascii;
    class       volVectorField;
    location    "286";
    object      U;
}
// * * * * * * * * * * * * * * * * * * * * * * * * * * * * * * * * * * * * * //

dimensions      [0 1 -1 0 0 0 0];

internalField   nonuniform List<vector> 
12225
(
(9.85697 -0.886449 0)
(9.66665 -0.740747 0)
(9.45573 -0.429483 0)
(9.22456 -0.222216 0)
(9.00655 -0.106462 0)
(8.81447 -0.0458763 0)
(8.64763 -0.0151805 0)
(8.50547 0.000439642 0)
(8.38388 0.00837089 0)
(8.28117 0.0122587 0)
(8.19287 0.0139581 0)
(8.11681 0.0149558 0)
(8.05023 0.0153607 0)
(7.99147 0.0155058 0)
(7.93857 0.0155255 0)
(7.89274 0.0152836 0)
(7.8401 0.0173983 0)
(7.83108 0.00994086 0)
(10.0545 0.227568 0)
(10.121 0.326911 0)
(10.1196 0.261569 0)
(10.0856 0.186537 0)
(10.0435 0.134662 0)
(9.99677 0.101106 0)
(9.94406 0.0792714 0)
(9.88535 0.0645492 0)
(9.82402 0.0542373 0)
(9.76156 0.0466429 0)
(9.70015 0.0408672 0)
(9.64041 0.0362995 0)
(9.5832 0.032609 0)
(9.52892 0.0297123 0)
(9.47728 0.0271587 0)
(9.42983 0.0261213 0)
(9.38263 0.0228054 0)
(9.34778 0.0310698 0)
(10.0035 0.0579181 0)
(10.0303 0.0560061 0)
(10.0561 0.0337769 0)
(10.0704 0.0328909 0)
(10.077 0.0406371 0)
(10.0779 0.0465303 0)
(10.0726 0.0493404 0)
(10.0615 0.0502797 0)
(10.0463 0.0501696 0)
(10.0279 0.0494459 0)
(10.0074 0.0483882 0)
(9.9853 0.0472035 0)
(9.96226 0.045991 0)
(9.93873 0.0448751 0)
(9.91499 0.0437451 0)
(9.89177 0.0431508 0)
(9.86873 0.0420581 0)
(9.84708 0.0435307 0)
(9.99779 0.0110531 0)
(10.011 0.0266068 0)
(10.035 0.037147 0)
(10.0525 0.0480788 0)
(10.0644 0.0554412 0)
(10.0735 0.0581686 0)
(10.0796 0.0583319 0)
(10.0825 0.0575823 0)
(10.0829 0.0565234 0)
(10.0814 0.0553149 0)
(10.0784 0.0540251 0)
(10.0741 0.052771 0)
(10.0688 0.0515459 0)
(10.0628 0.0504412 0)
(10.0561 0.049356 0)
(10.0493 0.0486291 0)
(10.0424 0.0476441 0)
(10.0355 0.0474668 0)
(9.99935 0.00719733 0)
(10.009 0.0316524 0)
(10.0275 0.0439171 0)
(10.0418 0.0499136 0)
(10.0528 0.0535973 0)
(10.0629 0.0552158 0)
(10.0716 0.0554878 0)
(10.0784 0.0551888 0)
(10.0836 0.0546335 0)
(10.0875 0.0539141 0)
(10.0903 0.053084 0)
(10.0923 0.0522361 0)
(10.0935 0.0513836 0)
(10.0942 0.0505908 0)
(10.0945 0.0498078 0)
(10.0945 0.0491936 0)
(10.0944 0.0484566 0)
(10.0943 0.0479008 0)
(10.0003 0.00917726 0)
(10.0083 0.0311669 0)
(10.0227 0.0409366 0)
(10.035 0.0453808 0)
(10.0451 0.0490192 0)
(10.0548 0.0513467 0)
(10.0638 0.0523183 0)
(10.0715 0.05254 0)
(10.078 0.0523913 0)
(10.0836 0.0520093 0)
(10.0885 0.0514684 0)
(10.0927 0.0508543 0)
(10.0964 0.0501994 0)
(10.0997 0.0495491 0)
(10.1026 0.048884 0)
(10.1054 0.048265 0)
(10.108 0.0475551 0)
(10.1106 0.0467644 0)
(10.0005 0.00894331 0)
(10.0071 0.0270813 0)
(10.0191 0.0364037 0)
(10.0302 0.0413749 0)
(10.0396 0.0453906 0)
(10.0487 0.0480465 0)
(10.0573 0.0493039 0)
(10.065 0.0497593 0)
(10.0718 0.0498143 0)
(10.078 0.0496139 0)
(10.0835 0.0492347 0)
(10.0886 0.0487514 0)
(10.0933 0.0482044 0)
(10.0976 0.0476252 0)
(10.1017 0.0470074 0)
(10.1056 0.0463649 0)
(10.1093 0.0456219 0)
(10.1131 0.0447107 0)
(10.0004 0.00791411 0)
(10.006 0.023374 0)
(10.0161 0.0327237 0)
(10.0263 0.0380821 0)
(10.0352 0.0420678 0)
(10.0436 0.0447396 0)
(10.0518 0.0461366 0)
(10.0593 0.0467529 0)
(10.066 0.0469532 0)
(10.0723 0.0468811 0)
(10.078 0.046614 0)
(10.0834 0.0462196 0)
(10.0885 0.0457408 0)
(10.0932 0.0452014 0)
(10.0977 0.0446001 0)
(10.1021 0.0439304 0)
(10.1063 0.0431432 0)
(10.1105 0.0421707 0)
(10.0004 0.00695803 0)
(10.0051 0.0204207 0)
(10.0137 0.0294398 0)
(10.0229 0.0348386 0)
(10.0312 0.0386786 0)
(10.0392 0.0413271 0)
(10.0469 0.0428428 0)
(10.0541 0.0435965 0)
(10.0607 0.043911 0)
(10.0669 0.0439354 0)
(10.0727 0.0437493 0)
(10.0781 0.0434163 0)
(10.0833 0.0429789 0)
(10.0881 0.0424582 0)
(10.0928 0.0418549 0)
(10.0974 0.0411573 0)
(10.1018 0.0403299 0)
(10.1061 0.0393269 0)
(10.0004 0.00612677 0)
(10.0043 0.0178542 0)
(10.0116 0.0262599 0)
(10.0199 0.0315554 0)
(10.0277 0.0352679 0)
(10.0352 0.037879 0)
(10.0425 0.0394725 0)
(10.0494 0.0403271 0)
(10.0558 0.0407262 0)
(10.0618 0.0408217 0)
(10.0675 0.0406943 0)
(10.0729 0.040404 0)
(10.0781 0.0399918 0)
(10.083 0.0394782 0)
(10.0877 0.0388659 0)
(10.0923 0.0381449 0)
(10.0966 0.03729 0)
(10.1009 0.0362784 0)
(10.0003 0.0053664 0)
(10.0037 0.0155438 0)
(10.0099 0.0232197 0)
(10.0173 0.0283165 0)
(10.0245 0.0318855 0)
(10.0315 0.0344185 0)
(10.0384 0.0360354 0)
(10.045 0.0369522 0)
(10.0513 0.0374102 0)
(10.0571 0.0375565 0)
(10.0627 0.0374716 0)
(10.068 0.0372115 0)
(10.0731 0.0368156 0)
(10.0779 0.0363048 0)
(10.0826 0.0356844 0)
(10.0871 0.0349487 0)
(10.0914 0.0340816 0)
(10.0956 0.0330789 0)
(10.0003 0.00470077 0)
(10.0032 0.0136013 0)
(10.0086 0.020571 0)
(10.0152 0.0254015 0)
(10.0219 0.0288034 0)
(10.0286 0.0312296 0)
(10.0351 0.032826 0)
(10.0414 0.0337679 0)
(10.0474 0.0342582 0)
(10.0531 0.0344347 0)
(10.0586 0.0343759 0)
(10.0638 0.0341349 0)
(10.0688 0.0337493 0)
(10.0735 0.0332405 0)
(10.0781 0.0326166 0)
(10.0825 0.0318769 0)
(10.0867 0.031012 0)
(10.0907 0.0300316 0)
(10.0003 0.00408553 0)
(10.0028 0.0118313 0)
(10.0075 0.01807 0)
(10.0134 0.022558 0)
(10.0197 0.0257585 0)
(10.0259 0.0280526 0)
(10.0321 0.0295962 0)
(10.0381 0.0305363 0)
(10.0439 0.0310409 0)
(10.0495 0.0312345 0)
(10.0548 0.0311926 0)
(10.0598 0.0309653 0)
(10.0647 0.0305883 0)
(10.0694 0.0300838 0)
(10.0738 0.0294623 0)
(10.0781 0.0287276 0)
(10.0822 0.0278761 0)
(10.0861 0.0269276 0)
(10.0002 0.00345 0)
(10.0024 0.00999146 0)
(10.0064 0.0153873 0)
(10.0117 0.0194079 0)
(10.0174 0.0223233 0)
(10.0232 0.0244256 0)
(10.029 0.0258658 0)
(10.0348 0.0267667 0)
(10.0403 0.027261 0)
(10.0457 0.0274557 0)
(10.0508 0.0274203 0)
(10.0557 0.0272015 0)
(10.0604 0.0268326 0)
(10.065 0.0263356 0)
(10.0693 0.0257238 0)
(10.0734 0.0250052 0)
(10.0774 0.0241811 0)
(10.0811 0.0232783 0)
(10.0002 0.00279016 0)
(10.002 0.00808057 0)
(10.0055 0.0125333 0)
(10.0101 0.0159567 0)
(10.0153 0.0184852 0)
(10.0206 0.0203204 0)
(10.0261 0.0215934 0)
(10.0314 0.0224038 0)
(10.0367 0.0228519 0)
(10.0418 0.0230234 0)
(10.0468 0.0229792 0)
(10.0515 0.0227607 0)
(10.0561 0.0223982 0)
(10.0604 0.0219131 0)
(10.0646 0.0213202 0)
(10.0686 0.0206306 0)
(10.0724 0.0198496 0)
(10.076 0.0190075 0)
(10.0002 0.00210538 0)
(10.0017 0.00610084 0)
(10.0047 0.0095168 0)
(10.0088 0.0122097 0)
(10.0134 0.0142323 0)
(10.0183 0.0157082 0)
(10.0233 0.0167356 0)
(10.0283 0.0173901 0)
(10.0333 0.0177428 0)
(10.0382 0.0178573 0)
(10.0429 0.0177819 0)
(10.0475 0.0175513 0)
(10.0518 0.0171912 0)
(10.056 0.0167212 0)
(10.06 0.0161562 0)
(10.0639 0.0155085 0)
(10.0675 0.0147856 0)
(10.071 0.0140182 0)
(10.0002 0.00139275 0)
(10.0015 0.00403836 0)
(10.0041 0.0063219 0)
(10.0076 0.00815035 0)
(10.0118 0.00953699 0)
(10.0163 0.0105457 0)
(10.0209 0.011237 0)
(10.0256 0.0116594 0)
(10.0303 0.0118577 0)
(10.035 0.0118729 0)
(10.0394 0.0117382 0)
(10.0438 0.0114788 0)
(10.048 0.0111144 0)
(10.052 0.0106606 0)
(10.0559 0.0101303 0)
(10.0595 0.00953505 0)
(10.063 0.00888212 0)
(10.0663 0.00819979 0)
(10.0001 0.000635991 0)
(10.0013 0.0018415 0)
(10.0036 0.00287682 0)
(10.0069 0.00369919 0)
(10.0107 0.0043092 0)
(10.0148 0.00472905 0)
(10.0192 0.00498146 0)
(10.0236 0.00508631 0)
(10.0281 0.00506298 0)
(10.0325 0.00492985 0)
(10.0368 0.00470268 0)
(10.0409 0.0043944 0)
(10.045 0.00401591 0)
(10.0488 0.00357681 0)
(10.0525 0.00308563 0)
(10.056 0.00255077 0)
(10.0593 0.00197743 0)
(10.0625 0.00138923 0)
(10.0001 -0.000207895 0)
(10.0012 -0.000611374 0)
(10.0034 -0.000991222 0)
(10.0065 -0.00133561 0)
(10.0102 -0.00164361 0)
(10.0143 -0.00192938 0)
(10.0185 -0.00221076 0)
(10.0228 -0.00249982 0)
(10.0271 -0.00280372 0)
(10.0313 -0.00312791 0)
(10.0355 -0.00347641 0)
(10.0395 -0.00385129 0)
(10.0434 -0.00425283 0)
(10.0471 -0.00468 0)
(10.0507 -0.00513086 0)
(10.0541 -0.00560229 0)
(10.0573 -0.00609282 0)
(10.0604 -0.00658565 0)
(10.0001 -0.00101487 0)
(10.0013 -0.00296425 0)
(10.0037 -0.00470832 0)
(10.007 -0.00616461 0)
(10.0108 -0.00732955 0)
(10.015 -0.00826303 0)
(10.0193 -0.0090264 0)
(10.0237 -0.00966156 0)
(10.028 -0.0102026 0)
(10.0323 -0.010681 0)
(10.0364 -0.011121 0)
(10.0404 -0.0115393 0)
(10.0442 -0.0119464 0)
(10.0479 -0.0123497 0)
(10.0514 -0.0127537 0)
(10.0547 -0.0131605 0)
(10.0579 -0.0135722 0)
(10.0609 -0.0139782 0)
(10.0002 -0.0017106 0)
(10.0015 -0.00501864 0)
(10.0041 -0.00795661 0)
(10.0078 -0.0103193 0)
(10.012 -0.0121279 0)
(10.0164 -0.0135324 0)
(10.021 -0.014639 0)
(10.0255 -0.0155045 0)
(10.03 -0.0161857 0)
(10.0343 -0.016741 0)
(10.0385 -0.0172144 0)
(10.0425 -0.0176345 0)
(10.0464 -0.0180201 0)
(10.0501 -0.0183848 0)
(10.0536 -0.0187377 0)
(10.0569 -0.0190839 0)
(10.06 -0.0194277 0)
(10.063 -0.0197621 0)
(10.0002 -0.00237117 0)
(10.0016 -0.00704846 0)
(10.0047 -0.0112029 0)
(10.009 -0.0143827 0)
(10.0137 -0.0166887 0)
(10.0185 -0.0184315 0)
(10.0233 -0.0197712 0)
(10.0281 -0.0207786 0)
(10.0328 -0.0215349 0)
(10.0373 -0.022121 0)
(10.0416 -0.0225934 0)
(10.0456 -0.0229885 0)
(10.0495 -0.0233324 0)
(10.0532 -0.0236446 0)
(10.0567 -0.0239379 0)
(10.06 -0.02422 0)
(10.0632 -0.0244961 0)
(10.0661 -0.024762 0)
(10.0002 -0.0029889 0)
(10.0018 -0.00910456 0)
(10.0054 -0.014473 0)
(10.0105 -0.0183714 0)
(10.0159 -0.0211233 0)
(10.0211 -0.0231529 0)
(10.0263 -0.0246157 0)
(10.0314 -0.0256365 0)
(10.0362 -0.0263697 0)
(10.0409 -0.0269248 0)
(10.0452 -0.0273582 0)
(10.0494 -0.0277054 0)
(10.0533 -0.0279957 0)
(10.057 -0.0282511 0)
(10.0605 -0.0284858 0)
(10.0639 -0.0287081 0)
(10.067 -0.0289234 0)
(10.0699 -0.0291294 0)
(10.0001 -0.00353161 0)
(10.0018 -0.0115605 0)
(10.0062 -0.0179095 0)
(10.0123 -0.0220138 0)
(10.0183 -0.0250861 0)
(10.024 -0.027501 0)
(10.0296 -0.0291447 0)
(10.035 -0.0301602 0)
(10.0401 -0.0308177 0)
(10.0448 -0.0312818 0)
(10.0493 -0.0316202 0)
(10.0536 -0.0318731 0)
(10.0575 -0.0320744 0)
(10.0613 -0.0322478 0)
(10.0648 -0.0324067 0)
(10.0681 -0.0325583 0)
(10.0712 -0.0327063 0)
(10.0741 -0.0328471 0)
(9.99991 -0.00337412 0)
(10.0016 -0.014993 0)
(10.0073 -0.0227505 0)
(10.0142 -0.0262634 0)
(10.0206 -0.0288525 0)
(10.0268 -0.0312215 0)
(10.0331 -0.0329469 0)
(10.039 -0.0340392 0)
(10.0444 -0.0347431 0)
(10.0494 -0.0352105 0)
(10.054 -0.0355119 0)
(10.0583 -0.0357013 0)
(10.0623 -0.0358247 0)
(10.0659 -0.0359129 0)
(10.0693 -0.035984 0)
(10.0725 -0.0360478 0)
(10.0754 -0.0361091 0)
(10.0781 -0.0361664 0)
(9.99859 -0.000380322 0)
(9.99903 -0.0158051 0)
(10.0076 -0.0274447 0)
(10.0166 -0.0325038 0)
(10.0238 -0.034883 0)
(10.0306 -0.0362423 0)
(10.0376 -0.036998 0)
(10.0441 -0.0374688 0)
(10.0498 -0.0378213 0)
(10.0549 -0.0380716 0)
(10.0595 -0.0382194 0)
(10.0635 -0.0382895 0)
(10.0671 -0.038312 0)
(10.0702 -0.0383081 0)
(10.073 -0.038293 0)
(10.0754 -0.0382748 0)
(10.0776 -0.0382575 0)
(10.0794 -0.0382392 0)
(9.99487 0.00141394 0)
(9.99287 -0.00812792 0)
(10.006 -0.0203329 0)
(10.0202 -0.0322684 0)
(10.0306 -0.0404787 0)
(10.0392 -0.0441559 0)
(10.0467 -0.0450728 0)
(10.0529 -0.0449328 0)
(10.0577 -0.0444698 0)
(10.0616 -0.0438766 0)
(10.0646 -0.0432346 0)
(10.0667 -0.0425999 0)
(10.0682 -0.0420067 0)
(10.069 -0.0414636 0)
(10.0693 -0.04098 0)
(10.0692 -0.0405524 0)
(10.0687 -0.040178 0)
(10.0679 -0.0398314 0)
(9.9947 -0.0305773 0)
(9.99946 -0.0228491 0)
(10.0146 -0.00262528 0)
(10.0304 -0.00190782 0)
(10.0434 -0.0116621 0)
(10.0533 -0.0209295 0)
(10.0594 -0.0272901 0)
(10.0618 -0.0315194 0)
(10.0615 -0.0342963 0)
(10.059 -0.0359945 0)
(10.055 -0.036928 0)
(10.0497 -0.0373626 0)
(10.0434 -0.037489 0)
(10.0364 -0.0374269 0)
(10.0288 -0.0372667 0)
(10.0209 -0.0370635 0)
(10.0127 -0.0368823 0)
(10.0045 -0.0366919 0)
(10.0274 -0.183085 0)
(10.0766 -0.288336 0)
(10.0871 -0.247834 0)
(10.0777 -0.186568 0)
(10.0663 -0.140328 0)
(10.0537 -0.108248 0)
(10.0365 -0.0859002 0)
(10.0145 -0.0704419 0)
(9.98933 -0.0596709 0)
(9.96228 -0.0518946 0)
(9.9343 -0.046072 0)
(9.90597 -0.0415741 0)
(9.87778 -0.0380177 0)
(9.85007 -0.0351422 0)
(9.82307 -0.0327753 0)
(9.79689 -0.0308537 0)
(9.77179 -0.029336 0)
(9.74778 -0.0285154 0)
(9.93574 0.689652 0)
(9.86821 0.609623 0)
(9.76458 0.380621 0)
(9.6266 0.217418 0)
(9.48586 0.119244 0)
(9.35716 0.0631595 0)
(9.24264 0.0315459 0)
(9.14105 0.0135935 0)
(9.05137 0.00323936 0)
(8.97237 -0.00282148 0)
(8.90246 -0.00637499 0)
(8.84027 -0.0084927 0)
(8.78455 -0.00974188 0)
(8.73443 -0.0104865 0)
(8.68899 -0.0109882 0)
(8.64763 -0.0112561 0)
(8.60943 -0.0114615 0)
(8.57408 -0.0121205 0)
(0.00451802 -0.0105455 -8.34498e-19)
(0.0158421 -0.0169433 7.3613e-19)
(0.0257764 -0.0147659 0)
(0.0321252 -0.00879016 0)
(0.0339358 -0.00181475 0)
(0.0309881 0.00451193 -3.89226e-19)
(0.0243345 0.00938799 0)
(0.0148272 0.0127347 0)
(0.00317112 0.0148494 0)
(-0.0100813 0.0161326 0)
(-0.0245944 0.0169704 2.33066e-19)
(-0.0402033 0.0176305 0)
(-0.0568028 0.0182485 0)
(-0.07434 0.0188779 0)
(-0.0927856 0.0195317 0)
(-0.11212 0.0202068 1.23493e-19)
(-0.132323 0.0208936 0)
(-0.153379 0.0215795 0)
(-0.175268 0.0222472 0)
(-0.19797 0.022874 0)
(-0.221457 0.02343 0)
(-0.245702 0.0238783 0)
(-0.270663 0.0241812 0)
(-0.296296 0.0243041 7.05552e-20)
(-0.322544 0.02423 -6.73333e-20)
(-0.349374 0.0239695 6.44715e-20)
(-0.376774 0.0235873 6.19113e-20)
(-0.404739 0.0232032 0)
(-0.43318 0.0229439 0)
(-0.462019 0.0228764 -5.56185e-20)
(-0.491368 0.0231823 -5.38791e-20)
(-0.521333 0.0240927 0)
(-0.551743 0.0251411 0)
(-0.582453 0.0271999 -4.9747e-20)
(-0.61362 0.0318257 0)
(-0.64592 0.0359722 0)
(-0.679174 0.0414372 4.6323e-20)
(-0.71289 0.053631 0)
(-0.749145 0.0705674 4.54697e-20)
(-0.789238 0.0796124 8.97977e-20)
(-0.831373 0.0826326 0)
(-0.870886 0.100126 0)
(-0.910723 0.0764607 0)
(-0.950535 0.0288343 0)
(-0.982751 0.0305621 0)
(-1.01971 0.0325092 1.1501e-19)
(-1.05856 0.0338081 1.11616e-19)
(-1.09851 0.0342654 1.0844e-19)
(-1.13886 0.0343439 0)
(-1.1794 0.0342255 -1.02679e-19)
(-1.21997 0.0340086 0)
(-1.26049 0.0337299 9.76108e-20)
(-1.30091 0.0334156 9.53003e-20)
(-1.34119 0.0330771 0)
(-1.38131 0.0327224 0)
(-1.42125 0.0323554 0)
(-1.46099 0.0319781 8.72716e-20)
(-1.50051 0.0315913 0)
(-1.53979 0.0311946 0)
(-1.57882 0.0307877 0)
(-1.61757 0.0303693 0)
(-1.65603 0.0299384 0)
(-1.69417 0.0294936 0)
(-1.73197 0.0290337 0)
(-1.7694 0.0285575 0)
(-1.80642 0.0280638 -7.40377e-20)
(-1.84302 0.0275517 0)
(-1.87915 0.0270202 0)
(-1.91479 0.0264687 7.0573e-20)
(-1.9499 0.0258965 6.94896e-20)
(-1.98444 0.0253034 0)
(-2.01837 0.0246886 -6.7412e-20)
(-2.05166 0.0240524 6.64124e-20)
(-2.08427 0.0233942 0)
(-2.11616 0.0227146 -6.44793e-20)
(-2.14728 0.0220132 0)
(-2.17761 0.0212911 0)
(-2.20709 0.0205481 6.17105e-20)
(-2.23568 0.0197851 0)
(-2.26335 0.0190019 -5.99275e-20)
(-2.29006 0.0181999 0)
(-2.31576 0.0173788 5.81766e-20)
(-2.34041 0.0165397 5.73088e-20)
(-2.36398 0.0156822 5.64437e-20)
(-2.38642 0.0148072 1.1116e-19)
(-2.4077 0.0139141 -1.09431e-19)
(-2.42777 0.013003 0)
(-2.4466 0.0120717 0)
(-2.46414 0.0111182 0)
(-2.48035 0.0101378 -1.02446e-19)
(-2.49518 0.00912441 -1.00668e-19)
(-2.5086 0.00807045 9.88744e-20)
(-2.52054 0.00696688 0)
(-2.53094 0.00580354 -9.52272e-20)
(-2.53972 0.00457553 -9.33712e-20)
(-2.54681 0.00329829 -9.14938e-20)
(-2.55213 0.00202552 0)
(-2.55555 0.000846074 0)
(-2.55698 -0.000161461 0)
(-2.55699 -0.00105417 -8.36397e-20)
(-2.55547 -0.0019221 0)
(-2.55247 -0.00277778 0)
(-2.54798 -0.00362854 7.72355e-20)
(-2.542 -0.00447527 0)
(-2.53452 -0.00531752 0)
(-2.52552 -0.00615515 7.03338e-20)
(-2.51501 -0.0069869 0)
(-2.50297 -0.00781284 0)
(-2.48939 -0.00863168 -6.28666e-20)
(-2.47429 -0.00944365 -6.02399e-20)
(-2.45766 -0.0102473 0)
(-2.43949 -0.011043 5.47638e-20)
(-2.4198 -0.0118292 0)
(-2.39859 -0.0126063 -4.89717e-20)
(-2.37586 -0.0133727 0)
(-2.35163 -0.0141289 -4.28396e-20)
(-2.32589 -0.0148734 -3.96378e-20)
(-2.29867 -0.0156064 0)
(-2.26998 -0.0163267 0)
(-2.23982 -0.0170349 0)
(-2.20823 -0.0177299 0)
(-2.17523 -0.0184117 0)
(-2.14082 -0.0190788 0)
(-2.10503 -0.0197314 0)
(-2.06789 -0.0203681 -1.02703e-20)
(-2.02942 -0.0209902 6.06413e-21)
(-1.98965 -0.021597 0)
(-1.94861 -0.0221902 0)
(-1.90632 -0.0227679 0)
(-1.86281 -0.0233298 0)
(-1.81813 -0.0238753 -3.42694e-20)
(-1.77229 -0.0244046 0)
(-1.72536 -0.0249178 5.51212e-20)
(-1.67734 -0.0254181 -6.6104e-20)
(-1.6283 -0.0259019 0)
(-1.57826 -0.0263686 0)
(-1.52728 -0.0268196 0)
(-1.47538 -0.0272546 1.14233e-19)
(-1.42262 -0.0276744 1.27439e-19)
(-1.36905 -0.0280788 0)
(-1.3147 -0.028468 1.5546e-19)
(-1.25962 -0.028842 1.70343e-19)
(-1.20386 -0.0292013 -1.85858e-19)
(-1.14747 -0.0295463 0)
(-1.09049 -0.0298778 0)
(-1.03297 -0.0301961 -2.36642e-19)
(-0.974949 -0.0305022 0)
(-0.916478 -0.0307963 0)
(-0.857601 -0.0310798 0)
(-0.798364 -0.0313529 0)
(-0.738809 -0.0316172 3.38825e-19)
(-0.67898 -0.0318729 3.62551e-19)
(-0.618917 -0.0321219 0)
(-0.558662 -0.0323645 4.14076e-19)
(-0.498254 -0.0326027 0)
(-0.437729 -0.0328368 0)
(-0.377126 -0.0330682 5.03545e-19)
(-0.31648 -0.0332968 0)
(-0.255827 -0.0335257 5.73322e-19)
(-0.195202 -0.0337638 0)
(-0.134639 -0.0340246 0)
(-0.0741823 -0.0342752 6.98083e-19)
(-0.0138734 -0.0342992 0)
(0.0462255 -0.033733 7.39363e-19)
(0.106169 -0.0327903 0)
(0.165895 -0.0318537 0)
(0.225369 -0.0309733 0)
(0.284591 -0.0301433 -6.7142e-19)
(0.343568 -0.0293555 0)
(0.4023 -0.0286003 6.44362e-19)
(0.460771 -0.0278676 0)
(0.518945 -0.0271434 0)
(0.576752 -0.0264084 0)
(0.634053 -0.0256306 0)
(0.690648 -0.0247512 0)
(0.745911 -0.0236588 0)
(0.799541 -0.0220806 0)
(0.846656 -0.0193673 -1.13772e-18)
(0.893078 -0.0139637 0)
(0.885926 0.0032194 0)
(0.004632 -0.0322389 1.94722e-18)
(0.0104018 -0.0324416 -1.10196e-18)
(0.0104902 -0.0202947 0)
(0.00763903 -0.00694273 3.46975e-19)
(0.00235359 0.00576302 0)
(-0.00505965 0.0169326 1.35482e-19)
(-0.0146 0.0261153 -2.48087e-19)
(-0.026179 0.0333019 -2.29166e-19)
(-0.0396691 0.038781 0)
(-0.054871 0.0429778 -1.95862e-19)
(-0.0715611 0.0463127 -9.05373e-20)
(-0.0895583 0.0491126 0)
(-0.10873 0.0515892 0)
(-0.128981 0.0538637 0)
(-0.150246 0.0559975 0)
(-0.172482 0.0580193 -6.32469e-20)
(-0.19566 0.0599409 0)
(-0.219762 0.0617668 1.12382e-19)
(-0.244776 0.0634974 0)
(-0.270693 0.0651306 0)
(-0.29751 0.0666616 -9.68537e-20)
(-0.325227 0.0680834 0)
(-0.353846 0.0693895 8.91764e-20)
(-0.383376 0.0705739 -4.2983e-20)
(-0.413825 0.0716381 4.15247e-20)
(-0.44521 0.0725889 -4.02099e-20)
(-0.477541 0.0734541 -3.90183e-20)
(-0.510803 0.0742843 0)
(-0.544991 0.0751447 0)
(-0.580191 0.0760464 3.6103e-20)
(-0.616436 0.076961 -3.54284e-20)
(-0.65361 0.0778791 0)
(-0.691787 0.0787829 0)
(-0.731121 0.0796725 3.38391e-20)
(-0.771407 0.0805693 0)
(-0.812462 0.081297 0)
(-0.85443 0.0817594 -3.30181e-20)
(-0.897149 0.0824438 0)
(-0.938988 0.0831331 3.21251e-20)
(-0.97949 0.0828842 -6.49007e-20)
(-1.0194 0.0817975 0)
(-1.05896 0.0813642 0)
(-1.10017 0.0821631 -1.31663e-19)
(-1.14243 0.0839764 -1.29223e-19)
(-1.18556 0.0862533 -1.26339e-19)
(-1.22546 0.0873618 6.1587e-20)
(-1.26368 0.0876406 -6.06684e-20)
(-1.30107 0.0873822 -1.77841e-19)
(-1.33797 0.0867769 1.16054e-19)
(-1.37451 0.0859655 5.70418e-20)
(-1.41073 0.0850287 0)
(-1.44666 0.0840144 -5.49214e-20)
(-1.48229 0.0829501 5.36449e-20)
(-1.51764 0.0818521 0)
(-1.55269 0.0807289 0)
(-1.58743 0.0795853 0)
(-1.62186 0.0784227 -5.03975e-20)
(-1.65596 0.0772411 0)
(-1.68971 0.0760389 9.73792e-20)
(-1.72311 0.0748143 0)
(-1.75614 0.0735649 9.44594e-20)
(-1.78877 0.0722882 0)
(-1.82098 0.0709817 -9.17198e-20)
(-1.85275 0.0696428 0)
(-1.88405 0.0682695 8.91317e-20)
(-1.91487 0.0668596 -4.38165e-20)
(-1.94517 0.0654115 0)
(-1.97493 0.0639237 -8.54787e-20)
(-2.00411 0.0623953 -4.22744e-20)
(-2.03269 0.0608253 -4.16979e-20)
(-2.06064 0.0592133 0)
(-2.08792 0.0575589 -4.03513e-20)
(-2.11451 0.0558624 -4.00176e-20)
(-2.14037 0.0541236 0)
(-2.16547 0.0523437 3.89274e-20)
(-2.18979 0.0505228 -7.65865e-20)
(-2.21327 0.0486626 0)
(-2.23591 0.0467639 -3.73168e-20)
(-2.25765 0.0448285 0)
(-2.27847 0.0428572 1.08591e-19)
(-2.29834 0.0408523 0)
(-2.31722 0.0388147 -1.05395e-19)
(-2.33509 0.0367468 -3.46377e-20)
(-2.35192 0.0346492 3.39792e-20)
(-2.36766 0.0325246 6.68863e-20)
(-2.3823 0.0303737 -6.58053e-20)
(-2.3958 0.0281989 0)
(-2.40813 0.0260004 0)
(-2.41927 0.0237795 0)
(-2.42919 0.0215354 1.84285e-19)
(-2.43786 0.0192667 6.02899e-20)
(-2.44528 0.0169727 -5.91024e-20)
(-2.45143 0.014652 0)
(-2.4563 0.0123011 -5.66775e-20)
(-2.45991 0.00991282 5.54291e-20)
(-2.46229 0.00748527 5.41672e-20)
(-2.46351 0.00504319 0)
(-2.46366 0.00265839 0)
(-2.46287 0.000420057 0)
(-2.46071 -0.00170084 4.88384e-20)
(-2.45714 -0.00377972 0)
(-2.45213 -0.00582961 -9.22182e-20)
(-2.44566 -0.00785875 -1.33898e-19)
(-2.43773 -0.00986791 8.64098e-20)
(-2.42831 -0.0118557 0)
(-2.41739 -0.0138205 4.03464e-20)
(-2.40498 -0.0157598 0)
(-2.39106 -0.0176724 7.41355e-20)
(-2.37564 -0.0195559 -3.56573e-20)
(-2.3587 -0.0214091 -3.40357e-20)
(-2.34025 -0.0232298 0)
(-2.32029 -0.025017 -9.11625e-20)
(-2.29882 -0.0267684 5.74806e-20)
(-2.27585 -0.028483 2.67203e-20)
(-2.25139 -0.0301585 0)
(-2.22543 -0.0317942 2.30864e-20)
(-2.198 -0.0333878 6.42725e-20)
(-2.1691 -0.0349384 0)
(-2.13874 -0.036444 3.54544e-20)
(-2.10695 -0.0379045 3.156e-20)
(-2.07373 -0.0393184 2.76012e-20)
(-2.03912 -0.040685 0)
(-2.00312 -0.0420018 0)
(-1.96576 -0.0432676 0)
(-1.92706 -0.0444802 -5.9579e-21)
(-1.88705 -0.0456402 -3.00262e-21)
(-1.84575 -0.0467467 0)
(-1.80319 -0.0478011 1.93775e-21)
(-1.75941 -0.0488025 6.41911e-21)
(-1.71444 -0.0497523 0)
(-1.66829 -0.0506502 1.65057e-20)
(-1.62102 -0.0514916 4.05118e-20)
(-1.57265 -0.0522716 -2.59666e-20)
(-1.52322 -0.0529971 -2.88272e-20)
(-1.47278 -0.0536716 0)
(-1.42136 -0.0542919 0)
(-1.369 -0.054855 0)
(-1.31574 -0.055363 -5.07438e-20)
(-1.26164 -0.0558169 5.37672e-20)
(-1.20673 -0.0562175 1.20058e-19)
(-1.15106 -0.0565651 -6.63824e-20)
(-1.09467 -0.0568604 6.95198e-20)
(-1.03762 -0.0571043 7.71279e-20)
(-0.979942 -0.0572983 0)
(-0.921687 -0.0574436 0)
(-0.862902 -0.0575418 -9.14381e-20)
(-0.803631 -0.0575944 0)
(-0.743922 -0.0576033 0)
(-0.683818 -0.0575702 2.19447e-19)
(-0.623366 -0.0574971 0)
(-0.562608 -0.0573862 1.20293e-19)
(-0.501589 -0.0572396 -1.28617e-19)
(-0.440349 -0.0570595 0)
(-0.378928 -0.0568484 1.38369e-19)
(-0.317367 -0.056608 0)
(-0.255703 -0.056341 0)
(-0.193972 -0.0560487 -1.59385e-19)
(-0.132209 -0.0557316 3.29054e-19)
(-0.0704481 -0.0553909 -1.72109e-19)
(-0.00871923 -0.0550278 0)
(0.0529596 -0.0546414 0)
(0.114569 -0.0542292 1.80347e-19)
(0.176097 -0.0537376 0)
(0.237469 -0.053045 1.83979e-19)
(0.298617 -0.0521967 0)
(0.359543 -0.0513308 0)
(0.420271 -0.0504887 0)
(0.480799 -0.0496735 1.93077e-19)
(0.541122 -0.0488789 0)
(0.601232 -0.0480947 -1.95983e-19)
(0.661108 -0.0473065 0)
(0.720709 -0.0464935 0)
(0.779965 -0.0456212 3.97572e-19)
(0.838741 -0.0446312 -3.99763e-19)
(0.896831 -0.0434104 0)
(0.953727 -0.0417478 0)
(1.00902 -0.0391108 0)
(1.0598 -0.0345141 1.23025e-18)
(1.10917 -0.0246123 0)
(1.13541 -0.000729036 -8.5406e-19)
(0.000209914 -0.0405521 -7.79657e-22)
(-0.00204614 -0.0273902 1.07056e-18)
(-0.00817446 -0.00899779 0)
(-0.0162491 0.00819698 -4.37674e-19)
(-0.0258147 0.0237717 0)
(-0.0365733 0.0376128 0)
(-0.0485177 0.0496138 3.54125e-23)
(-0.061743 0.0597612 1.35544e-19)
(-0.0763315 0.0681995 1.27488e-19)
(-0.0923042 0.0752018 1.20456e-19)
(-0.109622 0.0810901 0)
(-0.128212 0.0861656 0)
(-0.147992 0.0906698 -1.02419e-19)
(-0.168884 0.0947761 -1.9459e-19)
(-0.190829 0.0985983 1.85185e-19)
(-0.213779 0.102208 0)
(-0.237703 0.105647 1.68757e-19)
(-0.262578 0.108945 -8.08276e-20)
(-0.288389 0.112116 0)
(-0.315127 0.115172 1.49281e-19)
(-0.342786 0.11812 7.19669e-20)
(-0.371363 0.120964 -1.3911e-19)
(-0.400858 0.123707 -6.73357e-20)
(-0.431274 0.126351 0)
(-0.462614 0.128904 1.27123e-19)
(-0.494883 0.131373 1.23835e-19)
(-0.528075 0.133773 0)
(-0.562158 0.136124 1.181e-19)
(-0.59707 0.138435 0)
(-0.63274 0.140695 1.13134e-19)
(-0.669092 0.142895 5.53388e-20)
(-0.705995 0.144996 0)
(-0.743316 0.146942 0)
(-0.780954 0.148752 0)
(-0.818761 0.150425 0)
(-0.856508 0.151756 0)
(-0.893995 0.152865 0)
(-0.930928 0.153919 9.72329e-20)
(-0.966828 0.154475 -1.43592e-19)
(-1.00168 0.15392 0)
(-1.03584 0.152479 0)
(-1.06951 0.151012 0)
(-1.10329 0.147981 9.56612e-23)
(-1.13788 0.144138 8.85228e-20)
(-1.17283 0.141884 1.73293e-19)
(-1.20705 0.140259 -1.69849e-19)
(-1.24058 0.138764 -8.31627e-20)
(-1.27356 0.137215 8.17454e-20)
(-1.30615 0.135575 -1.69453e-22)
(-1.33844 0.133858 7.85702e-20)
(-1.37049 0.132083 0)
(-1.40231 0.130267 7.5815e-20)
(-1.43393 0.128419 -1.60589e-22)
(-1.46534 0.126547 0)
(-1.49655 0.124652 0)
(-1.52753 0.122735 -7.09201e-20)
(-1.55829 0.120794 0)
(-1.58881 0.118827 0)
(-1.61906 0.116828 6.75192e-20)
(-1.64905 0.114796 1.33331e-19)
(-1.67874 0.112724 -6.58391e-20)
(-1.70812 0.110611 0)
(-1.73716 0.10845 6.39429e-20)
(-1.76584 0.10624 0)
(-1.79414 0.103977 6.18293e-20)
(-1.82203 0.101657 6.12578e-20)
(-1.84949 0.0992801 -1.205e-19)
(-1.87648 0.0968428 -5.92628e-20)
(-1.90298 0.0943444 0)
(-1.92895 0.0917837 1.15521e-19)
(-1.95437 0.0891604 0)
(-1.97921 0.0864743 1.68594e-19)
(-2.00344 0.0837259 1.10727e-19)
(-2.02701 0.0809156 1.09157e-19)
(-2.04991 0.0780448 -1.07597e-19)
(-2.0721 0.0751147 1.59179e-19)
(-2.09354 0.0721273 0)
(-2.1142 0.0690844 0)
(-2.13406 0.0659884 -1.01406e-19)
(-2.15307 0.0628415 -1.4988e-19)
(-2.17121 0.0596465 0)
(-2.18843 0.0564059 4.84547e-20)
(-2.20473 0.0531226 0)
(-2.22005 0.0497992 -1.40487e-19)
(-2.23437 0.046439 -1.18045e-22)
(-2.24766 0.0430447 1.04312e-22)
(-2.2599 0.0396196 8.88168e-20)
(-2.27105 0.0361662 0)
(-2.28108 0.0326877 -8.55396e-20)
(-2.28999 0.0291867 -4.63553e-23)
(-2.29774 0.0256663 0)
(-2.30432 0.0221311 0)
(-2.30972 0.0185882 0)
(-2.31393 0.0150472 7.69805e-20)
(-2.31695 0.0115214 0)
(-2.31879 0.00803001 0)
(-2.31944 0.00459566 0)
(-2.31886 0.00122827 0)
(-2.317 -0.00210268 0)
(-2.31379 -0.00541878 6.58014e-20)
(-2.3092 -0.00871053 0)
(-2.30323 -0.0119743 6.16655e-20)
(-2.29584 -0.0152081 5.96121e-20)
(-2.28703 -0.0184088 -5.75294e-20)
(-2.27678 -0.0215733 0)
(-2.26507 -0.0246976 -5.32749e-20)
(-2.25192 -0.0277787 0)
(-2.2373 -0.030813 -4.89002e-20)
(-2.22121 -0.0337979 4.66675e-20)
(-2.20366 -0.0367301 1.33783e-19)
(-2.18464 -0.0396071 0)
(-2.16415 -0.0424259 1.2e-19)
(-2.1422 -0.045184 3.81031e-20)
(-2.11878 -0.0478787 0)
(-2.09392 -0.0505075 6.60109e-20)
(-2.0676 -0.053068 6.11589e-20)
(-2.03984 -0.0555576 -8.39753e-20)
(-2.01066 -0.0579738 0)
(-1.98006 -0.0603146 -2.27003e-20)
(-1.94806 -0.0625786 -2.01458e-20)
(-1.91468 -0.0647638 -5.36085e-20)
(-1.87993 -0.0668684 0)
(-1.84384 -0.0688894 0)
(-1.80642 -0.0708244 0)
(-1.76769 -0.0726712 -8.0064e-21)
(-1.72769 -0.074429 0)
(-1.68643 -0.0760971 0)
(-1.64395 -0.0776762 -1.20473e-21)
(-1.60028 -0.0791666 -3.9766e-21)
(-1.55544 -0.0805689 0)
(-1.50946 -0.081882 0)
(-1.46239 -0.0831019 -2.48188e-20)
(-1.41424 -0.084224 0)
(-1.36507 -0.0852535 3.62439e-20)
(-1.3149 -0.0861934 4.07568e-20)
(-1.26378 -0.0870415 0)
(-1.21175 -0.0877955 0)
(-1.15885 -0.0884566 -5.81489e-20)
(-1.10512 -0.0890264 -1.30913e-21)
(-1.0506 -0.0895061 -1.32304e-21)
(-0.995345 -0.0898966 0)
(-0.939394 -0.0901991 -1.64679e-19)
(-0.882792 -0.0904151 0)
(-0.825585 -0.0905467 0)
(-0.767817 -0.0905958 0)
(-0.709535 -0.0905649 1.06822e-19)
(-0.650783 -0.0904565 0)
(-0.591606 -0.0902733 -2.34746e-19)
(-0.53205 -0.0900182 -1.24754e-19)
(-0.472157 -0.0896942 0)
(-0.411972 -0.0893045 -1.36711e-19)
(-0.351535 -0.0888525 0)
(-0.29089 -0.0883415 0)
(-0.230074 -0.0877752 -4.60968e-19)
(-0.169126 -0.0871564 3.1825e-19)
(-0.108083 -0.0864882 0)
(-0.0469805 -0.0857739 3.41935e-19)
(0.0141531 -0.0850186 -1.77361e-19)
(0.075286 -0.0842254 0)
(0.136385 -0.0833939 0)
(0.197418 -0.0825217 0)
(0.258364 -0.0816129 -5.68833e-19)
(0.319212 -0.0806689 0)
(0.379953 -0.0796885 -1.9647e-19)
(0.440557 -0.078677 0)
(0.501012 -0.0776556 0)
(0.561312 -0.0766453 0)
(0.621441 -0.0756485 0)
(0.681388 -0.074659 0)
(0.741138 -0.0736649 0)
(0.800668 -0.0726471 -4.28531e-19)
(0.859937 -0.0715754 0)
(0.918878 -0.0703989 -2.19863e-19)
(0.977365 -0.0690304 6.6386e-19)
(1.03521 -0.0673088 0)
(1.09201 -0.0649318 0)
(1.14745 -0.0612546 -4.5457e-19)
(1.19963 -0.0550329 -4.61317e-19)
(1.25154 -0.0432857 4.66628e-19)
(1.29097 -0.0185295 4.80644e-19)
(-0.00472601 -0.0325298 -2.99391e-18)
(-0.0126111 -0.0103555 -1.28753e-18)
(-0.0226199 0.0113255 -4.66712e-19)
(-0.034215 0.0305854 -1.66393e-19)
(-0.0468026 0.0478862 0)
(-0.0600538 0.0634243 2.40918e-19)
(-0.0740137 0.077247 -1.10117e-19)
(-0.0888177 0.0893878 0)
(-0.104588 0.0999478 -9.70464e-20)
(-0.12141 0.109109 0)
(-0.139324 0.117102 1.75641e-19)
(-0.15833 0.124171 0)
(-0.178404 0.130531 8.01791e-20)
(-0.199506 0.136359 1.53552e-19)
(-0.221598 0.141783 -1.47249e-19)
(-0.244641 0.146897 0)
(-0.268606 0.151763 -1.36047e-19)
(-0.293463 0.156422 0)
(-0.31919 0.160901 0)
(-0.345763 0.165217 -1.22342e-19)
(-0.37316 0.16938 0)
(-0.401358 0.173394 -7.0502e-23)
(-0.43033 0.177258 0)
(-0.460047 0.180968 0)
(-0.490473 0.184518 9.5189e-23)
(-0.521566 0.187897 -1.03272e-19)
(-0.553266 0.191095 -1.00947e-19)
(-0.585491 0.194093 -9.85522e-20)
(-0.618134 0.196853 0)
(-0.651078 0.199323 -1.8851e-19)
(-0.6842 0.201457 0)
(-0.717372 0.203223 -9.0118e-20)
(-0.750469 0.204597 0)
(-0.783388 0.205564 0)
(-0.816032 0.20613 8.41598e-20)
(-0.848309 0.206303 0)
(-0.880131 0.206137 -8.04684e-20)
(-0.911386 0.205648 4.21077e-24)
(-0.942028 0.2047 1.54111e-19)
(-0.972172 0.203179 -1.50943e-19)
(-1.002 0.201157 0)
(-1.03165 0.198712 0)
(-1.0613 0.195608 -7.11423e-20)
(-1.09121 0.192207 0)
(-1.1213 0.189196 -6.83451e-20)
(-1.15128 0.186526 6.70388e-20)
(-1.18104 0.184047 6.57742e-20)
(-1.21057 0.181646 0)
(-1.23989 0.179265 -6.33809e-20)
(-1.26903 0.17688 -6.22528e-20)
(-1.29801 0.17448 1.222e-19)
(-1.32685 0.172064 -6.01254e-20)
(-1.35555 0.169629 -5.91214e-20)
(-1.38411 0.167172 0)
(-1.41252 0.16469 0)
(-1.44077 0.162179 5.63173e-20)