/*--------------------------------*- C++ -*----------------------------------*\
  =========                 |
  \\      /  F ield         | OpenFOAM: The Open Source CFD Toolbox
   \\    /   O peration     | Website:  https://openfoam.org
    \\  /    A nd           | Version:  12
     \\/     M anipulation  |
\*---------------------------------------------------------------------------*/
FoamFile
{
    format      ascii;
    class       volScalarField;
    location    "4.5";
    object      epsilon;
}
// * * * * * * * * * * * * * * * * * * * * * * * * * * * * * * * * * * * * * //

dimensions      [0 2 -3 0 0 0 0];

internalField   nonuniform List<scalar> 
1600
(
1.83912e-05
7.15192e-05
0.000146908
0.000166601
0.000162961
0.00017332
0.000217458
0.000323756
0.000439516
0.000547509
0.000787488
0.00112841
0.00135075
0.00152798
0.00178265
0.00209028
0.00242063
0.00275314
0.0031156
0.00348558
0.00390166
0.00434331
0.00485205
0.00542192
0.00610778
0.00676172
0.00740303
0.0079647
0.00843973
0.00868902
0.00878484
0.00854029
0.00776951
0.00644102
0.00459837
0.00254227
0.00115544
0.000453213
0.000136662
2.72277e-05
8.84764e-05
0.000111677
0.00014797
0.000154487
0.000163012
0.000204054
0.000331687
0.000623474
0.00105538
0.00160364
0.00275014
0.0039085
0.00422956
0.00420694
0.00401286
0.00387865
0.00381157
0.00378013
0.00377981
0.00384876
0.00396554
0.00412764
0.00432063
0.00454759
0.00482708
0.00516669
0.005549
0.00598621
0.00642633
0.00679173
0.00695561
0.00697426
0.00648563
0.00558712
0.00403657
0.00222413
0.000880085
0.000360362
0.000123616
5.27978e-05
0.00025946
0.000279772
0.000307882
0.000320704
0.000388539
0.000626861
0.00122082
0.00232062
0.00389049
0.00481668
0.00499556
0.00447198
0.00405029
0.00372724
0.00338384
0.00315383
0.00297014
0.00284533
0.00278104
0.00275489
0.00275083
0.00279234
0.00288011
0.00300734
0.00316848
0.00336115
0.00359239
0.00386523
0.00418182
0.00455228
0.00497395
0.00534311
0.00550885
0.00538121
0.00465555
0.00303891
0.000944542
0.000247079
8.34967e-05
4.53915e-05
0.000600581
0.00055686
0.000592188
0.000688228
0.001012
0.00183151
0.00328791
0.00462285
0.00507058
0.00484383
0.00438954
0.00358927
0.00305247
0.00262099
0.00238893
0.0022258
0.00212819
0.00208135
0.00206468
0.00206446
0.00210641
0.00216012
0.00223752
0.00232968
0.00244296
0.00257575
0.00273509
0.00292448
0.00314768
0.0034057
0.00369648
0.00402679
0.00442941
0.00483575
0.00498218
0.00454057
0.00222289
0.000391576
7.87235e-05
3.50282e-05
0.00116309
0.000965878
0.00108728
0.00141164
0.00218798
0.00351507
0.00462572
0.00496049
0.0047487
0.0039969
0.00300516
0.00251154
0.00215777
0.00194214
0.00182697
0.00176876
0.00174642
0.00174372
0.00177349
0.00181323
0.00186746
0.00192517
0.00199313
0.00206922
0.00216003
0.00226878
0.00240351
0.0025677
0.00276542
0.00299544
0.00325223
0.00353081
0.00383888
0.00420755
0.00472301
0.00495626
0.00438062
0.00125882
0.000161749
4.46333e-05
0.00199871
0.00155184
0.00182046
0.00241085
0.00345128
0.00439823
0.00470208
0.0045699
0.00366791
0.00266879
0.00216146
0.00186532
0.00168334
0.00159884
0.00156513
0.00155732
0.00157523
0.00160897
0.00165032
0.0016942
0.00174256
0.00179404
0.00185387
0.00192366
0.00200914
0.00211481
0.00224716
0.00241111
0.00261087
0.00284668
0.00311576
0.00340288
0.00369022
0.00397382
0.00431539
0.0047267
0.00488338
0.00328734
0.000497978
8.95466e-05
0.00309729
0.00230431
0.00269211
0.00338669
0.00415152
0.00443881
0.00437733
0.00354371
0.00249047
0.0019534
0.00167268
0.00151903
0.00144881
0.00142478
0.00142103
0.00143769
0.00146146
0.00148626
0.00151093
0.00153635
0.00156476
0.00159996
0.00164648
0.00170884
0.00179293
0.00190494
0.00205176
0.00223958
0.00247271
0.00275026
0.00306195
0.00338679
0.0036961
0.00396059
0.00422953
0.0045746
0.00477537
0.00455042
0.00127183
0.000205459
0.00429632
0.00313432
0.00352501
0.00405321
0.00428982
0.004226
0.00355938
0.00247365
0.00184894
0.00155096
0.00140419
0.00133658
0.00131178
0.00130602
0.00130867
0.00131511
0.00131723
0.00131723
0.0013149
0.00131421
0.00131961
0.00133556
0.00136719
0.00141877
0.00149652
0.00160761
0.00176062
0.00196538
0.00223132
0.00256394
0.0029579
0.0033879
0.0038048
0.00417512
0.00436754
0.0045695
0.00476931
0.00482119
0.00272886
0.000503282
0.0053874
0.00391004
0.00417469
0.00433442
0.00419497
0.00366843
0.002629
0.00184978
0.00149158
0.00132537
0.0012488
0.00121569
0.00120174
0.00119414
0.00118225
0.00116433
0.00113972
0.00111289
0.00108685
0.00106825
0.00106021
0.00105933
0.00107917
0.00111995
0.00118691
0.00128762
0.00143152
0.00163142
0.0019027
0.00226099
0.00271528
0.00325471
0.0038307
0.00437125
0.00470543
0.00486763
0.00499095
0.00504355
0.00426782
0.00134986
0.00623638
0.00452213
0.0045526
0.00439513
0.00389729
0.00294683
0.00197608
0.00149783
0.00128159
0.00118309
0.00113743
0.00111545
0.00109722
0.00107279
0.00103876
0.000997287
0.000952319
0.000908761
0.000870507
0.00084135
0.000826366
0.000821327
0.000830715
0.00086311
0.000918009
0.00100355
0.00112886
0.00130803
0.00156032
0.0019101
0.0023826
0.00299137
0.00371286
0.00445097
0.00501625
0.00523269
0.00529894
0.00527602
0.00486941
0.00246002
0.00679899
0.0049206
0.00475941
0.00429952
0.00340956
0.00232442
0.00160034
0.00128461
0.00114365
0.00107833
0.00104604
0.00102067
0.000988011
0.00094462
0.000892168
0.000835619
0.000780294
0.000730376
0.000688889
0.000657895
0.000641287
0.000635181
0.000639244
0.00066457
0.000708604
0.000778401
0.00088234
0.001034
0.00125378
0.00157097
0.00202343
0.00265013
0.00346839
0.00442931
0.0053009
0.00569443
0.00579831
0.00568544
0.00529759
0.00356344
0.00715501
0.00512906
0.0047527
0.00406966
0.00291563
0.00187518
0.0013651
0.00114223
0.00104192
0.000993639
0.000962268
0.000926093
0.000878485
0.000820577
0.000757285
0.000694525
0.000637054
0.000587783
0.000548371
0.000519555
0.000503854
0.000497927
0.000499572
0.000519014
0.000553995
0.000609905
0.000694079
0.000818605
0.00100285
0.00127708
0.00168581
0.00228633
0.00313179
0.00422265
0.00542286
0.00614266
0.0063209
0.00616399
0.00573347
0.00448958
0.00716038
0.00514342
0.00466698
0.00374748
0.00247401
0.00159285
0.00120625
0.00103793
0.000960576
0.00091961
0.000882414
0.000835
0.000776015
0.000709774
0.000642558
0.000579828
0.000525029
0.000479724
0.000444373
0.000418839
0.000404641
0.000399208
0.000399669
0.000414352
0.000442038
0.000486662
0.000554388
0.000655517
0.000807286
0.00103844
0.00139553
0.00194825
0.00278352
0.00396659
0.00544315
0.00660227
0.00694434
0.0067607
0.00611221
0.00535177
0.00707602
0.00508833
0.00447619
0.00341157
0.0021277
0.00140075
0.00109138
0.00095648
0.000892938
0.000852549
0.0008081
0.000751817
0.000685989
0.000616685
0.000550181
0.000490817
0.000440666
0.000400187
0.000369037
0.000346607
0.000333663
0.000328544
0.000328429
0.000339366
0.000361309
0.000397134
0.000451895
0.000534149
0.000658602
0.000850906
0.00115559
0.00164647
0.00243172
0.00362986
0.00528198
0.00696498
0.00758406
0.0074462
0.0066432
0.00616952
0.00686651
0.00494937
0.00422298
0.00309575
0.0018684
0.00126242
0.00100421
0.000890508
0.000835014
0.000792336
0.000741623
0.000679569
0.000610778
0.000541918
0.000478549
0.000423771
0.000378538
0.000342542
0.000314992
0.000295069
0.000283011
0.000277972
0.000277499
0.000285583
0.000303075
0.000332175
0.000377017
0.00044466
0.000547431
0.000707518
0.000965604
0.00139503
0.00211724
0.00329276
0.00502603
0.00716049
0.00825354
0.00819693
0.00721292
0.00696367
0.00649532
0.00474291
0.00395072
0.00281331
0.00168732
0.00115991
0.00093581
0.000836308
0.00078518
0.000739651
0.000684497
0.000619452
0.000550391
0.000483867
0.000424498
0.00037432
0.000333482
0.000301217
0.000276517
0.0002585
0.000247009
0.000241898
0.000241083
0.000247027
0.000261083
0.000285054
0.000322366
0.00037887
0.000464819
0.000598988
0.000817135
0.00118819
0.00183916
0.00297027
0.00478581
0.00721809
0.00892033
0.00905674
0.0078558
0.00775047
0.00604963
0.00450809
0.00368079
0.00257885
0.00155586
0.00108236
0.000881456
0.00079194
0.000742747
0.000694924
0.00063719
0.000571243
0.000503502
0.000440067
0.000384671
0.000338548
0.000301334
0.000272009
0.000249486
0.000232887
0.000221751
0.000216428
0.000215253
0.000219575
0.000230963
0.000250993
0.000282579
0.000330654
0.000403807
0.000517835
0.000703521
0.00102315
0.00160105
0.00265942
0.00448965
0.00720162
0.0095455
0.00997092
0.00855467
0.00852848
0.00552804
0.00428353
0.00343243
0.00239038
0.00146034
0.00102404
0.000838409
0.00075559
0.000707226
0.000658058
0.000599333
0.0005339
0.000468268
0.000408
0.000356125
0.000313337
0.000278971
0.000251889
0.000230988
0.00021541
0.000204597
0.000198911
0.000197321
0.000200382
0.000209675
0.000226628
0.000253808
0.000295473
0.000358929
0.000457513
0.000617458
0.000893759
0.00140383
0.00238082
0.00418417
0.00706215
0.0100908
0.0109535
0.00935998
0.00931375
0.00499393
0.0040619
0.00320972
0.00224219
0.00139147
0.000980293
0.000804642
0.00072602
0.000678046
0.000628506
0.000570043
0.00050603
0.000442809
0.000385455
0.000336508
0.00029634
0.000264139
0.000238729
0.000219017
0.000204167
0.000193633
0.000187519
0.000185429
0.000187478
0.000195106
0.000209613
0.00023335
0.000270097
0.000326209
0.000413084
0.000553023
0.000793777
0.00124271
0.00213323
0.00388142
0.00688914
0.0105583
0.0119644
0.0102491
0.010092
0.0044056
0.00386238
0.00302144
0.00212918
0.00134717
0.000950738
0.000778754
0.000702147
0.000654473
0.000605426
0.000548189
0.000486178
0.000425427
0.000370629
0.000324023
0.000285838
0.000255233
0.000231041
0.000212185
0.000197848
0.000187508
0.000181053
0.000178454
0.000179717
0.000185874
0.000198316
0.000219321
0.000252253
0.000302779
0.000380847
0.0005055
0.000717912
0.00111438
0.00192073
0.0035913
0.00667885
0.0109255
0.013009
0.0112593
0.0108807
0.00393309
0.00368815
0.00286407
0.00204297
0.00131939
0.000930311
0.000760016
0.000683327
0.000635715
0.00058781
0.000532552
0.000472967
0.000414681
0.000362055
0.000317275
0.000280586
0.000251194
0.000227889
0.000209601
0.000195552
0.000185268
0.000178594
0.000175611
0.000176381
0.000181417
0.000192148
0.000210725
0.000240385
0.000286629
0.000358138
0.00047127
0.00066144
0.00101364
0.00174079
0.00332075
0.00647034
0.0111921
0.0140705
0.0123823
0.0116605
0.00353131
0.00352611
0.00275104
0.00198428
0.00131411
0.000927444
0.000747432
0.00066875
0.000620983
0.00057468
0.000521962
0.00046512
0.000409233
0.000358956
0.000315962
0.00028043
0.000251602
0.000228567
0.000210435
0.000196448
0.000186104
0.00017917
0.000175716
0.000176003
0.000180158
0.000189855
0.000206795
0.000234124
0.00027686
0.000343115
0.000447738
0.000620926
0.000936801
0.00159191
0.00306837
0.00622418
0.0113899
0.0151399
0.0136467
0.0124467
0.00317387
0.00338644
0.0026714
0.0019465
0.00132033
0.000932979
0.000745399
0.000658802
0.000609669
0.000564982
0.000515209
0.000461449
0.000408886
0.000360082
0.000317799
0.000282698
0.000254273
0.000231559
0.00021364
0.000199779
0.000189455
0.000182409
0.000178615
0.000178474
0.000181658
0.00018998
0.000205821
0.000231856
0.000272463
0.000335545
0.000434099
0.00059368
0.000880442
0.00147258
0.0028417
0.00596492
0.0115091
0.0162338
0.0150241
0.0132193
0.00284687
0.00327146
0.00262345
0.0019377
0.00133779
0.000947933
0.000749175
0.000654293
0.000601657
0.000558244
0.000511519
0.000461508
0.000410737
0.00036366
0.000322614
0.00028822
0.00026018
0.000237697
0.000219869
0.000205966
0.000195498
0.000188203
0.000184099
0.000183656
0.000186265
0.000193574
0.000208061
0.000232323
0.000271426
0.000332878
0.000428234
0.000579679
0.000841432
0.00137989
0.00264202
0.0056909
0.011561
0.0173336
0.0165276
0.0139876
0.00253921
0.00317243
0.00260068
0.00194549
0.00137301
0.000978268
0.000760478
0.000655981
0.000597324
0.000553402
0.00050963
0.000462799
0.000415129
0.000370449
0.000330713
0.000296936
0.000269082
0.000246567
0.000228634
0.000214601
0.000203969
0.000196464
0.000192101
0.000191475
0.00019375
0.000200412
0.000214035
0.000237258
0.000274745
0.000334003
0.000427095
0.000574642
0.000820235
0.00131041
0.0024709
0.00541317
0.0115704
0.0184376
0.0181555
0.0147332
0.00224807
0.00309312
0.00260362
0.00196717
0.0014217
0.00102245
0.000784127
0.00066297
0.000598337
0.000552462
0.000510103
0.000465894
0.000421532
0.000379155
0.000340903
0.000307898
0.000280336
0.000257847
0.000239824
0.000225666
0.000214899
0.000207247
0.000202699
0.000202031
0.000204153
0.000210467
0.000223591
0.000246248
0.000283037
0.000341502
0.000432997
0.000575926
0.000812403
0.00126076
0.00232689
0.00513752
0.0114794
0.0195199
0.0199056
0.0154593
0.00196539
0.00301141
0.00261522
0.00201063
0.00148553
0.00108135
0.000822287
0.000679023
0.000603465
0.00055421
0.000511987
0.000470461
0.000429015
0.000389136
0.000352636
0.000320671
0.000293624
0.000271328
0.000253338
0.000239154
0.000228351
0.000220669
0.000216053
0.000215528
0.000217652
0.000223903
0.000236942
0.000259492
0.000296136
0.00035455
0.000446182
0.000588142
0.000813867
0.0012354
0.00221241
0.00487721
0.0113305
0.0205443
0.0217774
0.0161511
0.00169539
0.00293539
0.00264379
0.00206019
0.00155979
0.00115544
0.00087649
0.000709834
0.000616444
0.000560121
0.000516359
0.000476268
0.000437273
0.000399884
0.000365378
0.000334783
0.000308576
0.000286757
0.000269036
0.000255023
0.000244365
0.000236841
0.000232335
0.000232178
0.000234463
0.000240945
0.000254351
0.000277274
0.000314351
0.000373389
0.000466054
0.000609104
0.000831479
0.00122699
0.00212264
0.00463247
0.0111399
0.0214852
0.0237385
0.016809
0.00143201
0.00281546
0.00264142
0.00213151
0.00164327
0.00124307
0.000948438
0.000757628
0.000643194
0.000573821
0.000525318
0.000484633
0.00044697
0.000411562
0.000378975
0.000349934
0.000324867
0.000303849
0.000286704
0.000273144
0.000262888
0.000255765
0.000251715
0.000252004
0.000254745
0.000261818
0.000276093
0.000299906
0.00033806
0.000398469
0.00049305
0.000638739
0.000861001
0.00123397
0.00206626
0.00440636
0.0108743
0.0223553
0.0257494
0.0174233
0.00120198
0.00268313
0.00262206
0.0022155
0.00173529
0.00134242
0.00103835
0.000825803
0.00068849
0.000601622
0.000543202
0.000498313
0.000459797
0.000425148
0.000393908
0.000366267
0.000342436
0.000322444
0.000306155
0.000293334
0.000283787
0.000277295
0.000274209
0.000274988
0.000278503
0.000286692
0.000302292
0.000327617
0.000367599
0.000430256
0.0005277
0.000677522
0.000903723
0.00126428
0.00204395
0.0042029
0.0105362
0.023088
0.0277331
0.0179972
0.0010097
0.00246148
0.00258268
0.00228949
0.00183079
0.00145104
0.00114589
0.000917532
0.000758126
0.000650655
0.00057718
0.000523286
0.000480249
0.000443845
0.000412359
0.0003852
0.000362147
0.000343017
0.000327613
0.000315644
0.000307048
0.000301319
0.000299701
0.00030113
0.000305724
0.000315622
0.000333039
0.000360633
0.000403379
0.000469422
0.000570956
0.000726579
0.000960423
0.00131574
0.00204382
0.00405006
0.0101707
0.0236671
0.0296003
0.0185311
0.000852584
0.00213728
0.00254147
0.00233663
0.00192079
0.00156334
0.0012685
0.00103391
0.000856929
0.000728433
0.000635938
0.000567855
0.000515502
0.000473518
0.000438976
0.000410328
0.000386729
0.000367604
0.000352571
0.000341155
0.000333415
0.00032843
0.000328499
0.000330735
0.000336726
0.000348939
0.000368897
0.000399763
0.000446523
0.000517616
0.00062515
0.000789245
0.00103516
0.00140038
0.00209983
0.00398639
0.00984194
0.024073
0.0312169
0.019037
0.000721005
0.0017231
0.00244584
0.00232245
0.0019988
0.00167466
0.00140363
0.00117696
0.000992499
0.000847083
0.000734632
0.000647929
0.000580436
0.000527169
0.000484673
0.000450629
0.000423493
0.000402139
0.000385826
0.00037382
0.000365955
0.0003617
0.000362406
0.000365851
0.000373824
0.000388936
0.000412482
0.0004482
0.000500972
0.000580075
0.000697127
0.00087517
0.00113977
0.00153494
0.00222712
0.00400402
0.00969568
0.0243873
0.032425
0.0195376
0.00063875
0.00131938
0.00223591
0.00224769
0.00206452
0.00178674
0.00154897
0.00134343
0.00116418
0.0010107
0.000882306
0.000776725
0.000690908
0.000621624
0.000565998
0.000521616
0.000486542
0.00045921
0.000438456
0.00042346
0.000413528
0.000408775
0.000409878
0.000414527
0.000425
0.000444353
0.00047363
0.00051755
0.000580477
0.000674092
0.000808267
0.00101303
0.00131062
0.00176767
0.00250452
0.0042888
0.00974446
0.0247621
0.0330584
0.0200689
0.000640964
0.00103715
0.00188677
0.00209758
0.00204891
0.00190293
0.00172425
0.00155627
0.00139745
0.00124823
0.00111121
0.00098886
0.000882321
0.000791571
0.000715746
0.000653508
0.000603374
0.000563762
0.000534135
0.000513356
0.0004994
0.000493909
0.000495837
0.000502973
0.000518534
0.00054662
0.000587475
0.000648666
0.000732722
0.000857949
0.00102875
0.00129309
0.00165945
0.00225256
0.00313805
0.00512311
0.0105868
0.0256325
0.0333085
0.0203157
0.000816358
0.000864785
0.00147378
0.00181595
0.00200696
0.0020029
0.00193241
0.00181552
0.00168636
0.00154983
0.00141302
0.00128227
0.00116209
0.00105534
0.000963206
0.000885984
0.000822974
0.000773624
0.000735654
0.000711042
0.000695876
0.000696519
0.000704441
0.000724386
0.000760025
0.000815543
0.000887906
0.000996546
0.0011371
0.00134559
0.0016116
0.00202839
0.00256662
0.00348108
0.00473463
0.00729586
0.0129961
0.0274949
0.0333213
0.0203937
0.00113274
0.000896796
0.00134948
0.00181945
0.00212584
0.00229117
0.00235781
0.0023344
0.00226298
0.00214829
0.00201847
0.0018832
0.0017515
0.00163132
0.00152635
0.0014409
0.00137455
0.00132848
0.00130071
0.00130188
0.00131519
0.00135054
0.00141399
0.00150691
0.00162736
0.00179275
0.0019962
0.00227019
0.00259263
0.00305331
0.00361047
0.00444802
0.00545963
0.00713778
0.00922334
0.013066
0.0188472
0.0312608
0.0333184
0.0200713
0.00179664
0.00126519
0.00187754
0.00255619
0.00310111
0.00351377
0.00377411
0.00389485
0.00391174
0.0038719
0.00378502
0.0036859
0.00359002
0.00351469
0.00346081
0.00345618
0.00347621
0.00353333
0.00364497
0.00381551
0.00402871
0.00431228
0.00465002
0.0050827
0.00558272
0.00620617
0.00692627
0.00780736
0.00884166
0.0100928
0.0115234
0.013394
0.0156912
0.0189433
0.0227043
0.0283171
0.0333151
0.0386103
0.0348747
0.0190378
0.00330885
0.00312426
0.00578953
0.00816539
0.00962429
0.0105999
0.0112137
0.0115855
0.0117895
0.0119082
0.0119762
0.0120594
0.0121805
0.012392
0.0126754
0.0130802
0.0135709
0.0142073
0.0149362
0.0158574
0.0168742
0.0181216
0.019468
0.0210874
0.0228237
0.0248634
0.0270697
0.0295635
0.0323579
0.0352954
0.0388932
0.0421707
0.0467223
0.049839
0.0548917
0.0556009
0.0535359
0.0459649
0.0355861
0.0169236
0.00223297
0.00364145
0.00491424
0.00636684
0.00767759
0.00883644
0.0098254
0.0106329
0.0112818
0.011766
0.0121012
0.0123252
0.0124633
0.0125365
0.0125607
0.0125558
0.0125429
0.0125196
0.0125064
0.0125116
0.0125308
0.0125713
0.0126608
0.0127485
0.0129301
0.0130725
0.0133632
0.0135655
0.0139802
0.0142382
0.0147776
0.0150766
0.0156937
0.0161046
0.0169946
0.0175215
0.0183685
0.0183471
0.0176821
0.0147532
)
;

boundaryField
{
    movingWall
    {
        type            epsilonWallFunction;
        value           nonuniform List<scalar> 
40
(
0.00223297
0.00364145
0.00491424
0.00636684
0.00767759
0.00883644
0.0098254
0.0106329
0.0112818
0.011766
0.0121012
0.0123252
0.0124633
0.0125365
0.0125607
0.0125558
0.0125429
0.0125196
0.0125064
0.0125116
0.0125308
0.0125713
0.0126608
0.0127485
0.0129301
0.0130725
0.0133632
0.0135655
0.0139802
0.0142382
0.0147776
0.0150766
0.0156937
0.0161046
0.0169946
0.0175215
0.0183685
0.0183471
0.0176821
0.0147532
)
;
    }
    fixedWalls
    {
        type            epsilonWallFunction;
        value           nonuniform List<scalar> 
120
(
1.83912e-05
8.84764e-05
0.00025946
0.000600581
0.00116309
0.00199871
0.00309729
0.00429632
0.0053874
0.00623638
0.00679899
0.00715501
0.00716038
0.00707602
0.00686651
0.00649532
0.00604963
0.00552804
0.00499393
0.0044056
0.00393309
0.00353131
0.00317387
0.00284687
0.00253921
0.00224807
0.00196539
0.00169539
0.00143201
0.00120198
0.0010097
0.000852584
0.000721005
0.00063875
0.000640964
0.000816358
0.00113274
0.00179664
0.00330885
0.00223297
2.72277e-05
5.27978e-05
4.53915e-05
3.50282e-05
4.46333e-05
8.95466e-05
0.000205459
0.000503282
0.00134986
0.00246002
0.00356344
0.00448958
0.00535177
0.00616952
0.00696367
0.00775047
0.00852848
0.00931375
0.010092
0.0108807
0.0116605
0.0124467
0.0132193
0.0139876
0.0147332
0.0154593
0.0161511
0.016809
0.0174233
0.0179972
0.0185311
0.019037
0.0195376
0.0200689
0.0203157
0.0203937
0.0200713
0.0190378
0.0169236
0.0147532
1.83912e-05
7.15192e-05
0.000146908
0.000166601
0.000162961
0.00017332
0.000217458
0.000323756
0.000439516
0.000547509
0.000787488
0.00112841
0.00135075
0.00152798
0.00178265
0.00209028
0.00242063
0.00275314
0.0031156
0.00348558
0.00390166
0.00434331
0.00485205
0.00542192
0.00610778
0.00676172
0.00740303
0.0079647
0.00843973
0.00868902
0.00878484
0.00854029
0.00776951
0.00644102
0.00459837
0.00254227
0.00115544
0.000453213
0.000136662
2.72277e-05
)
;
    }
    frontAndBack
    {
        type            empty;
    }
}


// ************************************************************************* //
