/*--------------------------------*- C++ -*----------------------------------*\
  =========                 |
  \\      /  F ield         | OpenFOAM: The Open Source CFD Toolbox
   \\    /   O peration     | Website:  https://openfoam.org
    \\  /    A nd           | Version:  12
     \\/     M anipulation  |
\*---------------------------------------------------------------------------*/
FoamFile
{
    format      ascii;
    class       volScalarField;
    location    "4.5";
    object      k;
}
// * * * * * * * * * * * * * * * * * * * * * * * * * * * * * * * * * * * * * //

dimensions      [0 2 -2 0 0 0 0];

internalField   nonuniform List<scalar> 
1600
(
1.4382e-06
5.59091e-06
1.14833e-05
1.30177e-05
1.2729e-05
1.35361e-05
1.69842e-05
2.53032e-05
3.43658e-05
4.28315e-05
6.16653e-05
8.82881e-05
0.00010561
0.000119427
0.000139303
0.000163319
0.000189115
0.000215082
0.000243389
0.000272286
0.000304785
0.000339283
0.000379024
0.000423538
0.000477113
0.000528192
0.000578295
0.000622177
0.000659303
0.0006788
0.000686299
0.000667273
0.000607068
0.000503343
0.000359485
0.000198801
9.03552e-05
3.54405e-05
1.06854e-05
2.12856e-06
6.91983e-06
3.75056e-05
7.55321e-05
8.84738e-05
9.22829e-05
0.000102594
0.000135593
0.000202259
0.000265755
0.000324741
0.000460035
0.000604386
0.000662261
0.000682743
0.000703114
0.000727822
0.000763393
0.00079508
0.000837617
0.000877173
0.000926869
0.000975204
0.00102996
0.00108218
0.00113374
0.00119046
0.00125
0.0013104
0.00136293
0.00139091
0.00140003
0.00135661
0.00124826
0.00106743
0.000805741
0.000466138
0.000198794
7.94456e-05
2.72109e-05
4.12507e-06
2.0299e-05
9.67945e-05
0.000163518
0.000188771
0.000216841
0.00028329
0.000424817
0.000631959
0.000841893
0.000943035
0.000958142
0.00088216
0.000837483
0.000819827
0.000817631
0.000827617
0.0008423
0.000860617
0.000884114
0.000909523
0.000938654
0.000968093
0.000999638
0.00103091
0.00106571
0.00110183
0.00113977
0.00117776
0.00121399
0.00124403
0.00125808
0.00126108
0.00121598
0.001091
0.000895448
0.000541147
0.000193574
6.85355e-05
2.52528e-05
3.54566e-06
4.69956e-05
0.000199573
0.000296693
0.000349848
0.000440348
0.00061806
0.000867161
0.00104188
0.00108976
0.00101012
0.00092472
0.000855684
0.000826111
0.000816108
0.000814876
0.000825471
0.000838265
0.000855254
0.00087364
0.000893123
0.000913279
0.000933597
0.000955214
0.000977898
0.00100133
0.00102547
0.00105048
0.00107557
0.00109898
0.00111846
0.00112949
0.00113356
0.00112391
0.00108759
0.00100094
0.000807848
0.000321897
7.98647e-05
2.12437e-05
2.73614e-06
9.10175e-05
0.000352146
0.000484553
0.00057869
0.000735669
0.000963267
0.00111019
0.00114182
0.00105738
0.000935277
0.000850986
0.000814706
0.000801763
0.00079886
0.00080383
0.000819736
0.000836274
0.000856301
0.000876488
0.000897802
0.000918238
0.000937847
0.000956457
0.000974752
0.000993599
0.00101361
0.00103533
0.00105818
0.00107951
0.00109562
0.00110412
0.00110701
0.00109901
0.00107232
0.00103148
0.000934925
0.000674291
0.00018795
3.22229e-05
3.48746e-06
0.000156405
0.000544564
0.000710395
0.00083387
0.0010061
0.00113315
0.00116301
0.00109267
0.000941452
0.000841781
0.000798572
0.000782263
0.000778317
0.000784831
0.000802116
0.000821992
0.000844556
0.000868513
0.000890536
0.000911381
0.000929989
0.000947391
0.000964083
0.000980912
0.000999456
0.00102093
0.00104648
0.00107687
0.00111252
0.00114626
0.00116175
0.0011643
0.0011565
0.001123
0.00106192
0.000979829
0.000825459
0.000381405
7.16314e-05
6.99869e-06
0.000242365
0.000746956
0.000940379
0.00105468
0.00114858
0.00117621
0.00111735
0.000962402
0.000838161
0.00078489
0.000764857
0.000759851
0.000765542
0.000784212
0.000805066
0.000827504
0.000848718
0.000868322
0.000886064
0.00090096
0.00091366
0.000925827
0.000939
0.00095515
0.000975539
0.00100147
0.00103401
0.00107347
0.00111891
0.00116933
0.0012235
0.0012519
0.00125677
0.00124079
0.00117862
0.00105806
0.000893356
0.000621883
0.000147359
1.60579e-05
0.000336183
0.000948577
0.00113462
0.00119457
0.00120909
0.00114513
0.00100359
0.000847349
0.000777171
0.0007503
0.000743141
0.0007456
0.000763332
0.000783536
0.00080394
0.000822852
0.00083807
0.00084898
0.000855275
0.000858435
0.000862264
0.00086828
0.000878219
0.000893315
0.000914712
0.000944142
0.000983154
0.00103298
0.0010938
0.00116349
0.0012361
0.0013042
0.0013358
0.00134038
0.00131422
0.0012149
0.00101912
0.000723405
0.000250218
3.93431e-05
0.000421531
0.00111608
0.00126726
0.0012775
0.00119778
0.00106405
0.000879667
0.000780815
0.00074068
0.000728412
0.00072727
0.000740667
0.000760515
0.000778663
0.000793514
0.000800562
0.000802108
0.000798933
0.000793811
0.000791379
0.000790578
0.000793108
0.00080121
0.000815113
0.00083648
0.000866873
0.000908288
0.000962901
0.00103269
0.00111827
0.00121678
0.00131858
0.00139786
0.00142559
0.00142271
0.00135523
0.00118559
0.000894768
0.000453649
0.000105502
0.000487922
0.00123712
0.00136271
0.00131081
0.00115458
0.000958097
0.000805338
0.000739922
0.000716713
0.000711752
0.000717988
0.000736076
0.000752572
0.000760955
0.000762596
0.000755302
0.00074648
0.000735834
0.000726307
0.000720516
0.000718164
0.000718361
0.000725818
0.000739037
0.000759813
0.000789428
0.000829986
0.000884177
0.00095529
0.0010465
0.00115906
0.00128886
0.00142102
0.00150735
0.00152597
0.00149218
0.0013346
0.00102366
0.000569543
0.000192197
0.000531932
0.00131293
0.00141712
0.00130183
0.00108445
0.000868289
0.000757289
0.000713047
0.00069999
0.000699138
0.000711873
0.000725263
0.000730297
0.0007276
0.00071788
0.000703302
0.000688455
0.000674286
0.000662912
0.000656182
0.000653516
0.000653525
0.000660954
0.000673954
0.000694025
0.00072226
0.000760611
0.000811864
0.000879946
0.000969775
0.00108614
0.00123061
0.00139533
0.00154637
0.00161595
0.00162102
0.00150671
0.0012021
0.000707163
0.000278383
0.000559786
0.00135348
0.00143703
0.00127429
0.00100563
0.000810417
0.000724979
0.000693471
0.000685775
0.000688483
0.000699122
0.000702915
0.000700007
0.000688125
0.000671234
0.000652481
0.000634948
0.000619847
0.000608428
0.000602113
0.000599733
0.000600346
0.000607861
0.000620673
0.000639965
0.000666719
0.000702632
0.000750283
0.000813611
0.000898304
0.00101163
0.00116052
0.0013461
0.00155329
0.0016941
0.00172653
0.00165069
0.00135213
0.000833469
0.000350705
0.000560211
0.0013547
0.00142829
0.00122782
0.000938663
0.00076987
0.000700781
0.000676977
0.000672018
0.000675618
0.00067933
0.000677545
0.000666379
0.00064835
0.000627559
0.000607066
0.00058901
0.000574344
0.000563677
0.000558055
0.000556041
0.000557212
0.000564531
0.000576922
0.000595314
0.000620645
0.000654393
0.000698823
0.000757517
0.000836065
0.000942658
0.00108746
0.00127851
0.00151134
0.00173425
0.00182794
0.00180153
0.00151995
0.000954496
0.000418058
0.000553616
0.00134315
0.00140448
0.00117672
0.000883692
0.000738969
0.000680908
0.000661793
0.000658094
0.000659174
0.000658786
0.000650314
0.0006334
0.000611791
0.000589341
0.000568641
0.00055113
0.000537367
0.000527541
0.000522402
0.000520604
0.000521911
0.000528689
0.000540364
0.000557712
0.000581673
0.000613582
0.00065543
0.000710363
0.000783531
0.000883241
0.00102168
0.00121269
0.00146187
0.00174536
0.00191351
0.00193018
0.00167639
0.00108028
0.000481922
0.000537237
0.00131376
0.00136252
0.00112292
0.000843607
0.000714324
0.000663679
0.000647365
0.00064361
0.000642537
0.000637553
0.000624003
0.000603488
0.000580125
0.000557348
0.0005372
0.00052058
0.000507699
0.000498501
0.000493501
0.000491708
0.000492745
0.000498708
0.00050942
0.000525598
0.000548203
0.0005785
0.000618269
0.000670229
0.000738877
0.000831907
0.000961993
0.00114704
0.00140337
0.00172403
0.00198653
0.00205292
0.00183666
0.00120312
0.000543962
0.000508209
0.00126955
0.00131215
0.00107368
0.000812825
0.000694036
0.000648394
0.000633771
0.000629406
0.000626231
0.000617366
0.000600329
0.000577789
0.000553813
0.000531377
0.000512033
0.000496279
0.000484078
0.000475238
0.000470072
0.000468085
0.000468604
0.000473582
0.000483166
0.000498078
0.000519322
0.000548155
0.000586233
0.000635948
0.000701176
0.00078875
0.00091081
0.00108691
0.00134048
0.00167871
0.00202443
0.00215735
0.00199021
0.00133139
0.000605413
0.000473357
0.00121821
0.00125778
0.00103094
0.000788501
0.000677098
0.000634755
0.000621138
0.0006163
0.000611098
0.000599339
0.000580115
0.000556606
0.000532646
0.000510804
0.000492245
0.000477195
0.000465458
0.000456769
0.000451217
0.000448835
0.000448771
0.000452687
0.00046105
0.000474633
0.000494496
0.000521937
0.000558562
0.000606533
0.00066919
0.000752454
0.000867511
0.00103453
0.00128275
0.00163203
0.00204018
0.00225309
0.0021399
0.00145769
0.000666192
0.00043256
0.00116618
0.00120372
0.000994235
0.000769337
0.000663
0.000622719
0.000609741
0.00060452
0.000597685
0.000584
0.000563569
0.000539754
0.000516113
0.00049489
0.000476986
0.000462453
0.000451005
0.000442346
0.000436339
0.000433331
0.000432737
0.000435586
0.000442702
0.000454921
0.000473382
0.000499456
0.00053477
0.000581351
0.000642103
0.000722029
0.00083096
0.000988367
0.00122763
0.00158471
0.00204154
0.00233539
0.00228442
0.00159281
0.000727528
0.000390793
0.00111285
0.00115136
0.00096361
0.000754765
0.000651543
0.000612245
0.000599624
0.000594132
0.000586203
0.000571437
0.000550522
0.000526812
0.000503611
0.000482934
0.000465524
0.000451339
0.000440043
0.000431308
0.000424962
0.000421252
0.000420068
0.000421927
0.000427821
0.000438674
0.00045572
0.00048043
0.000514509
0.000559948
0.000619334
0.000696856
0.00080087
0.000949184
0.00117625
0.00152949
0.00201853
0.00240935
0.00242265
0.0017278
0.000788323
0.000344763
0.00106412
0.00110353
0.00093766
0.000744825
0.000642652
0.000603256
0.000590743
0.000585078
0.00057659
0.000561448
0.000540595
0.000517263
0.000494544
0.000474317
0.000457254
0.000443283
0.000432048
0.000423207
0.000416576
0.000412246
0.000410416
0.000411394
0.00041613
0.000425648
0.000441287
0.000464633
0.000497512
0.000541969
0.000600394
0.000676276
0.000776524
0.000916937
0.00113163
0.00147649
0.00198418
0.00247232
0.00255625
0.00187149
0.000849929
0.000307794
0.00101118
0.00105963
0.000916702
0.000738612
0.000636478
0.000595582
0.000582788
0.000577094
0.000568568
0.000553646
0.000533297
0.000510559
0.000488358
0.000468503
0.000451672
0.000437811
0.000426577
0.000417623
0.000410749
0.000405972
0.000403491
0.000403715
0.000407372
0.000415603
0.00042988
0.000451885
0.000483586
0.000527164
0.000584936
0.000659806
0.000757266
0.000890799
0.00109288
0.00142546
0.00194415
0.00251792
0.00268683
0.00201776
0.000910849
0.00027636
0.000956862
0.00101785
0.0009011
0.000736848
0.00063363
0.000589888
0.000575898
0.000570001
0.000561781
0.000547555
0.000528087
0.000506159
0.000484533
0.000465007
0.000448327
0.000434512
0.000423252
0.0004142
0.000407134
0.000402031
0.000399082
0.000398712
0.000401357
0.000408365
0.000421369
0.000442073
0.000472604
0.000515375
0.000572735
0.000647117
0.000742682
0.000870456
0.00106041
0.0013783
0.00190139
0.0025471
0.00281386
0.00217221
0.000972253
0.000248395
0.000903188
0.000979153
0.000889328
0.000738189
0.000634491
0.000585728
0.000569658
0.000563423
0.000555786
0.000542648
0.000524405
0.000503498
0.000482558
0.000463413
0.000446919
0.000433143
0.000421843
0.000412702
0.000405487
0.000400154
0.000396899
0.000396205
0.000398205
0.000404155
0.000415938
0.000435259
0.000464589
0.000506554
0.000563653
0.000637979
0.000732417
0.000855414
0.00103364
0.00133468
0.00185752
0.00256089
0.00293742
0.00233124
0.00103261
0.000222812
0.000851095
0.000943724
0.000879949
0.000742183
0.000637746
0.000585043
0.00056501
0.000557513
0.000550296
0.000538432
0.000521678
0.000502062
0.000482067
0.000463513
0.000447179
0.000433421
0.000422085
0.000412881
0.000405575
0.00040009
0.000396615
0.000395697
0.000397318
0.000402612
0.000413565
0.000431903
0.000460181
0.000501364
0.000558281
0.000632977
0.000727075
0.000845756
0.00101255
0.00129466
0.00181198
0.0025653
0.00305608
0.00249734
0.00109263
0.000198739
0.000799957
0.000911438
0.000869936
0.000750614
0.00064485
0.000586536
0.000561281
0.000552026
0.000545019
0.000534475
0.000519408
0.000501319
0.000482376
0.000464293
0.000448253
0.000434608
0.00042331
0.000414136
0.000406873
0.000401453
0.000398026
0.000397075
0.000398445
0.000403131
0.000413285
0.000430966
0.000458608
0.000499344
0.000556118
0.000631115
0.000725172
0.000841209
0.000996892
0.00125825
0.00176207
0.00256033
0.00316913
0.00266889
0.00115086
0.000175956
0.000750484
0.000881097
0.000858521
0.000762682
0.000656975
0.000591088
0.000561376
0.000547755
0.00054008
0.000530541
0.000517161
0.000500762
0.000483108
0.000465934
0.000450395
0.000437002
0.000425848
0.000416802
0.000409692
0.000404433
0.000401149
0.000400396
0.000401742
0.000406191
0.000415855
0.000432784
0.000459469
0.000499388
0.000555982
0.000631325
0.000725686
0.00083997
0.000986218
0.00122644
0.00170919
0.0025391
0.00327463
0.00284571
0.00120758
0.000153831
0.000699956
0.000852809
0.000845134
0.000775871
0.000672593
0.000600577
0.000563591
0.000546104
0.000535838
0.000526629
0.000514767
0.000500109
0.000483969
0.000467921
0.000453117
0.000440199
0.000429382
0.000420634
0.000413831
0.000408897
0.000405954
0.000405637
0.000407144
0.000411708
0.000421388
0.000438033
0.000464231
0.000503645
0.00056003
0.000635765
0.000730526
0.000842773
0.000980965
0.00119953
0.00165502
0.00250719
0.00337068
0.0030259
0.00126162
0.000132693
0.000650347
0.000823891
0.000830064
0.000787106
0.000692924
0.00061586
0.000569851
0.00054748
0.000534484
0.00052359
0.000512121
0.000498922
0.000484464
0.000469801
0.000456027
0.000443858
0.000433626
0.000425394
0.000419108
0.000414709
0.000412412
0.000412639
0.000414569
0.00041961
0.000429771
0.0004465
0.00047254
0.000511617
0.000567703
0.000643426
0.000738246
0.000848881
0.000979122
0.00117607
0.00160021
0.00246337
0.00345409
0.00320661
0.00131301
0.000112065
0.000596322
0.000794744
0.00081602
0.000789516
0.000715288
0.000637047
0.000582992
0.000552742
0.000536094
0.000523867
0.000511875
0.000499072
0.0004854
0.000471801
0.000459081
0.000447834
0.000438404
0.000430914
0.000425367
0.00042171
0.000420447
0.000421186
0.000423853
0.000429849
0.000440734
0.000457934
0.000484163
0.000523082
0.000578727
0.00065392
0.00074814
0.000856833
0.000979006
0.00115484
0.00154524
0.00240511
0.00352728
0.00338359
0.001361
9.40476e-05
0.000546476
0.000762925
0.000800252
0.00078741
0.000736502
0.000662427
0.00060392
0.000564821
0.000542126
0.000526852
0.000513636
0.000500565
0.000487378
0.000474483
0.000462638
0.000452297
0.000443752
0.000437143
0.000432484
0.000429767
0.000429775
0.00043111
0.000434737
0.00044207
0.000453918
0.000471916
0.000498634
0.000537536
0.000592511
0.000666454
0.000759032
0.000865096
0.00097947
0.00113469
0.00148851
0.00233088
0.00358429
0.00355037
0.00140583
7.89871e-05
0.000493879
0.000734502
0.000784482
0.000781532
0.000753373
0.000691408
0.000632559
0.000587877
0.000556405
0.000535874
0.000519835
0.000505424
0.000491888
0.000479126
0.000467711
0.000457982
0.000450153
0.000444369
0.000440517
0.000439131
0.000439816
0.000442139
0.000447164
0.000455764
0.00046877
0.000487788
0.000515169
0.000554055
0.000607976
0.000679739
0.000769277
0.000870828
0.000978654
0.00111495
0.00143152
0.00224458
0.00362029
0.00370032
0.00144754
6.66832e-05
0.000439413
0.000709705
0.000768366
0.000772891
0.00076035
0.00072142
0.000667933
0.000621691
0.00058502
0.000556381
0.000534959
0.000517362
0.000501993
0.000488366
0.000476481
0.000466661
0.000459
0.000453663
0.000450251
0.000450038
0.000451242
0.000454419
0.00046078
0.000470573
0.000484734
0.000504765
0.000532723
0.000571324
0.000623558
0.000692022
0.000776772
0.000872892
0.000974166
0.00109449
0.00137842
0.0021566
0.00363582
0.0038207
0.00148706
5.63764e-05
0.000382895
0.000681876
0.000753059
0.000766676
0.000763425
0.000746704
0.000708963
0.000666393
0.000628088
0.000594973
0.000566789
0.000543155
0.000523543
0.000507159
0.000493357
0.000482186
0.000473617
0.000467817
0.000464116
0.00046414
0.000465558
0.000469183
0.000476202
0.000486796
0.000501744
0.000522381
0.000550406
0.000588064
0.00063771
0.000701701
0.000780392
0.000870609
0.000966663
0.00108062
0.00134907
0.00209672
0.00363911
0.00387999
0.00152619
4.99381e-05
0.000333957
0.000636002
0.000731615
0.000759889
0.000769313
0.000766488
0.000752751
0.00072328
0.000688417
0.000654204
0.000622069
0.000593028
0.00056736
0.000545445
0.000527261
0.00051259
0.000501173
0.000493078
0.00048763
0.000485836
0.000486717
0.000489692
0.000496054
0.000506445
0.000521278
0.000541645
0.000568833
0.000604641
0.000650865
0.000709661
0.000782066
0.000867748
0.000963337
0.00107642
0.0013398
0.00207358
0.00363706
0.00389935
0.00156762
5.01118e-05
0.000310018
0.000576884
0.000697093
0.000748127
0.000780229
0.000796179
0.000796133
0.000787639
0.000766665
0.000736537
0.000704272
0.000672187
0.000641791
0.000614152
0.000589901
0.000569325
0.000552457
0.000539291
0.000529691
0.000523398
0.000521535
0.000522854
0.000527009
0.000535716
0.000549446
0.000568718
0.00059453
0.000628319
0.000671757
0.000726837
0.000796328
0.000881017
0.000987038
0.00111997
0.0014049
0.00211701
0.00365262
0.00386992
0.00158692
6.38425e-05
0.00031152
0.000515375
0.000656624
0.000750215
0.000807754
0.000846058
0.000867932
0.000873536
0.000867647
0.000850923
0.000822188
0.000789007
0.000754337
0.000720459
0.000688929
0.000660778
0.000636597
0.000616713
0.000601327
0.000590649
0.000584627
0.00058491
0.000587773
0.000594897
0.000608545
0.000628072
0.000655172
0.000690849
0.000737885
0.00079784
0.000878042
0.000979615
0.00112393
0.00131315
0.00165907
0.00236836
0.00373837
0.00377759
0.00159296
8.8635e-05
0.000348852
0.000521226
0.000672245
0.000790472
0.000883782
0.000950907
0.00099304
0.00101135
0.00100965
0.000999185
0.0009753
0.000941972
0.000905963
0.000870176
0.000836379
0.000806285
0.000780601
0.000760448
0.00074608
0.000735519
0.000733465
0.000736238
0.00074408
0.000759869
0.000784231
0.000816848
0.000860795
0.000915601
0.000989049
0.0010808
0.00120635
0.00136212
0.00158681
0.00186742
0.00231083
0.0029509
0.00390561
0.00369166
0.00156765
0.000140607
0.000470823
0.000635584
0.000818031
0.000972426
0.00110195
0.00119674
0.00125824
0.00129127
0.00129566
0.00129021
0.00127559
0.00125146
0.00122436
0.00119849
0.00117556
0.0011585
0.00114739
0.0011477
0.00115294
0.00116552
0.00119098
0.00122528
0.00127241
0.00132928
0.00140271
0.0014883
0.00159428
0.00171835
0.00186661
0.00203864
0.0022504
0.00250868
0.00283463
0.00321666
0.00369563
0.00411581
0.00428992
0.00361355
0.00148677
0.000258892
0.000809377
0.00116755
0.00152036
0.00174885
0.00191382
0.00202746
0.00210249
0.00215051
0.00217371
0.00218494
0.00219474
0.0022043
0.00221769
0.00223619
0.00226429
0.00230115
0.00235086
0.00241115
0.00248833
0.0025742
0.00267982
0.00279359
0.00293017
0.00307409
0.00324316
0.00342016
0.00362211
0.00383774
0.00406931
0.00433698
0.00458508
0.00491996
0.00513701
0.00549649
0.00548276
0.00527831
0.00458016
0.00319725
0.0013215
0.000174704
0.000284861
0.000384361
0.000497921
0.000600389
0.000690997
0.000768331
0.000831456
0.000882195
0.000920025
0.000946192
0.000963686
0.000974403
0.00098012
0.000981912
0.000981503
0.00098042
0.000978578
0.000977399
0.00097777
0.000979176
0.000982339
0.000989147
0.000995981
0.00101006
0.00102115
0.00104377
0.00105956
0.00109181
0.00111213
0.0011538
0.00117774
0.00122533
0.00125775
0.00132707
0.00136826
0.00143454
0.0014328
0.00138095
0.00115224
)
;

boundaryField
{
    movingWall
    {
        type            kqRWallFunction;
        value           nonuniform List<scalar> 
40
(
0.000174704
0.000284861
0.000384361
0.000497921
0.000600389
0.000690997
0.000768331
0.000831456
0.000882195
0.000920025
0.000946192
0.000963686
0.000974403
0.00098012
0.000981912
0.000981503
0.00098042
0.000978578
0.000977399
0.00097777
0.000979176
0.000982339
0.000989147
0.000995981
0.00101006
0.00102115
0.00104377
0.00105956
0.00109181
0.00111213
0.0011538
0.00117774
0.00122533
0.00125775
0.00132707
0.00136826
0.00143454
0.0014328
0.00138095
0.00115224
)
;
    }
    fixedWalls
    {
        type            kqRWallFunction;
        value           nonuniform List<scalar> 
120
(
1.4382e-06
6.91983e-06
2.0299e-05
4.69956e-05
9.10175e-05
0.000156405
0.000242365
0.000336183
0.000421531
0.000487922
0.000531932
0.000559786
0.000560211
0.000553616
0.000537237
0.000508209
0.000473357
0.00043256
0.000390793
0.000344763
0.000307794
0.00027636
0.000248395
0.000222812
0.000198739
0.000175956
0.000153831
0.000132693
0.000112065
9.40476e-05
7.89871e-05
6.66832e-05
5.63764e-05
4.99381e-05
5.01118e-05
6.38425e-05
8.8635e-05
0.000140607
0.000258892
0.000174704
2.12856e-06
4.12507e-06
3.54566e-06
2.73614e-06
3.48746e-06
6.99869e-06
1.60579e-05
3.93431e-05
0.000105502
0.000192197
0.000278383
0.000350705
0.000418058
0.000481922
0.000543962
0.000605413
0.000666192
0.000727528
0.000788323
0.000849929
0.000910849
0.000972253
0.00103261
0.00109263
0.00115086
0.00120758
0.00126162
0.00131301
0.001361
0.00140583
0.00144754
0.00148706
0.00152619
0.00156762
0.00158692
0.00159296
0.00156765
0.00148677
0.0013215
0.00115224
1.4382e-06
5.59091e-06
1.14833e-05
1.30177e-05
1.2729e-05
1.35361e-05
1.69842e-05
2.53032e-05
3.43658e-05
4.28315e-05
6.16653e-05
8.82881e-05
0.00010561
0.000119427
0.000139303
0.000163319
0.000189115
0.000215082
0.000243389
0.000272286
0.000304785
0.000339283
0.000379024
0.000423538
0.000477113
0.000528192
0.000578295
0.000622177
0.000659303
0.0006788
0.000686299
0.000667273
0.000607068
0.000503343
0.000359485
0.000198801
9.03552e-05
3.54405e-05
1.06854e-05
2.12856e-06
)
;
    }
    frontAndBack
    {
        type            empty;
    }
}


// ************************************************************************* //
