/*--------------------------------*- C++ -*----------------------------------*\
  =========                 |
  \\      /  F ield         | OpenFOAM: The Open Source CFD Toolbox
   \\    /   O peration     | Website:  https://openfoam.org
    \\  /    A nd           | Version:  12
     \\/     M anipulation  |
\*---------------------------------------------------------------------------*/
FoamFile
{
    format      ascii;
    class       volScalarField;
    location    "4.5";
    object      nut;
}
// * * * * * * * * * * * * * * * * * * * * * * * * * * * * * * * * * * * * * //

dimensions      [0 2 -1 0 0 0 0];

internalField   nonuniform List<scalar> 
1600
(
1.0122e-08
3.93356e-08
8.07851e-08
9.15444e-08
8.94844e-08
9.51445e-08
1.19388e-07
1.77982e-07
2.41837e-07
3.01563e-07
4.34591e-07
6.21698e-07
7.43157e-07
8.40095e-07
9.79713e-07
1.14845e-06
1.32974e-06
1.51224e-06
1.7112e-06
1.91433e-06
2.1428e-06
2.38531e-06
2.66471e-06
2.97765e-06
3.35431e-06
3.71338e-06
4.06567e-06
4.37422e-06
4.63536e-06
4.7726e-06
4.82542e-06
4.69221e-06
4.26898e-06
3.54009e-06
2.5293e-06
1.39913e-06
6.3592e-07
2.49425e-07
7.51927e-08
1.49763e-08
4.87087e-08
1.13363e-06
3.47003e-06
4.56017e-06
4.70182e-06
4.64235e-06
4.98869e-06
5.90529e-06
6.02274e-06
5.91846e-06
6.92579e-06
8.41127e-06
9.33267e-06
9.97221e-06
1.10877e-05
1.22917e-05
1.37605e-05
1.50507e-05
1.67056e-05
1.79925e-05
1.94974e-05
2.07363e-05
2.20972e-05
2.31772e-05
2.39654e-05
2.46867e-05
2.53425e-05
2.58164e-05
2.60153e-05
2.56367e-05
2.53619e-05
2.37495e-05
2.16222e-05
1.83542e-05
1.44751e-05
8.79247e-06
4.04133e-06
1.57632e-06
5.3908e-07
2.90061e-08
1.4293e-07
3.01397e-06
7.81604e-06
1.00002e-05
1.08916e-05
1.15222e-05
1.33044e-05
1.54888e-05
1.63965e-05
1.66169e-05
1.65393e-05
1.56617e-05
1.5585e-05
1.62293e-05
1.77806e-05
1.95463e-05
2.1498e-05
2.34277e-05
2.5296e-05
2.70249e-05
2.88263e-05
3.02071e-05
3.12261e-05
3.18056e-05
3.22602e-05
3.25075e-05
3.25458e-05
3.22982e-05
3.17182e-05
3.05966e-05
2.86389e-05
2.67875e-05
2.41567e-05
1.99072e-05
1.55007e-05
8.67273e-06
3.57041e-06
1.71095e-06
6.87371e-07
2.49265e-08
3.30967e-07
6.43726e-06
1.33782e-05
1.60055e-05
1.72446e-05
1.87713e-05
2.05837e-05
2.11332e-05
2.10788e-05
1.89583e-05
1.75325e-05
1.83596e-05
2.01218e-05
2.28703e-05
2.50163e-05
2.75524e-05
2.97164e-05
3.16291e-05
3.32701e-05
3.47743e-05
3.56374e-05
3.63149e-05
3.67009e-05
3.69431e-05
3.6939e-05
3.67435e-05
3.63115e-05
3.56014e-05
3.45325e-05
3.30577e-05
3.10612e-05
2.8719e-05
2.56663e-05
2.20145e-05
1.80983e-05
1.29357e-05
4.19526e-06
1.46601e-06
5.15941e-07
1.92353e-08
6.41029e-07
1.15549e-05
1.9435e-05
2.13506e-05
2.2262e-05
2.37576e-05
2.39805e-05
2.36543e-05
2.11899e-05
1.9697e-05
2.16881e-05
2.37851e-05
2.6812e-05
2.95736e-05
3.18303e-05
3.41918e-05
3.60405e-05
3.78458e-05
3.89856e-05
4.00084e-05
4.06352e-05
4.11186e-05
4.13083e-05
4.13261e-05
4.11344e-05
4.07562e-05
4.0138e-05
3.9248e-05
3.79257e-05
3.6066e-05
3.3736e-05
3.1237e-05
2.83167e-05
2.45958e-05
2.02742e-05
1.58724e-05
9.34117e-06
2.52559e-06
5.77734e-07
2.45246e-08
1.10152e-06
1.71986e-05
2.49495e-05
2.59579e-05
2.63964e-05
2.6275e-05
2.58891e-05
2.35135e-05
2.1748e-05
2.38961e-05
2.65536e-05
2.95253e-05
3.23879e-05
3.4673e-05
3.69971e-05
3.90481e-05
4.07527e-05
4.21937e-05
4.32492e-05
4.41243e-05
4.46693e-05
4.50265e-05
4.51223e-05
4.50167e-05
4.47465e-05
4.43569e-05
4.38603e-05
4.32864e-05
4.26649e-05
4.154e-05
3.89858e-05
3.58531e-05
3.26197e-05
2.85624e-05
2.35183e-05
1.82804e-05
1.25578e-05
3.98264e-06
9.2734e-07
4.92297e-08
1.70687e-06
2.17917e-05
2.95634e-05
2.956e-05
2.85995e-05
2.80509e-05
2.56693e-05
2.35232e-05
2.53873e-05
2.83837e-05
3.14767e-05
3.42085e-05
3.64056e-05
3.88474e-05
4.1049e-05
4.28663e-05
4.43591e-05
4.56571e-05
4.67658e-05
4.75512e-05
4.80137e-05
4.82164e-05
4.81966e-05
4.8049e-05
4.77714e-05
4.73843e-05
4.68996e-05
4.63082e-05
4.55677e-05
4.47445e-05
4.39996e-05
4.16482e-05
3.84601e-05
3.49845e-05
2.95595e-05
2.20247e-05
1.50413e-05
7.64906e-06
1.53661e-06
1.12952e-07
2.36754e-06
2.58372e-05
3.2869e-05
3.16861e-05
3.06705e-05
2.79267e-05
2.54673e-05
2.61234e-05
2.94003e-05
3.26672e-05
3.53963e-05
3.74333e-05
3.99768e-05
4.23068e-05
4.44488e-05
4.63366e-05
4.79889e-05
4.92468e-05
5.00682e-05
5.04652e-05
5.0708e-05
5.0804e-05
5.07716e-05
5.06219e-05
5.03188e-05
4.99042e-05
4.94105e-05
4.88629e-05
4.82566e-05
4.75181e-05
4.64904e-05
4.51855e-05
4.22079e-05
3.87285e-05
3.55913e-05
2.90707e-05
1.95993e-05
9.76904e-06
2.0649e-06
2.76801e-07
2.9684e-06
2.86717e-05
3.46216e-05
3.3887e-05
3.07799e-05
2.77772e-05
2.64904e-05
2.96633e-05
3.31022e-05
3.60297e-05
3.81188e-05
4.0613e-05
4.33159e-05
4.56968e-05
4.79338e-05
4.95398e-05
5.08052e-05
5.16191e-05
5.21803e-05
5.27639e-05
5.30566e-05
5.34414e-05
5.35357e-05
5.33924e-05
5.30563e-05
5.25248e-05
5.18672e-05
5.11493e-05
5.04442e-05
4.97784e-05
4.90741e-05
4.80776e-05
4.59081e-05
4.18435e-05
3.87148e-05
3.39586e-05
2.53473e-05
1.42866e-05
4.33988e-06
7.42117e-07
3.43567e-06
3.04595e-05
3.67107e-05
3.51842e-05
3.0784e-05
2.80354e-05
2.95389e-05
3.28967e-05
3.60731e-05
3.85373e-05
4.07898e-05
4.37155e-05
4.64565e-05
4.85786e-05
5.03866e-05
5.1483e-05
5.26619e-05
5.36232e-05
5.45394e-05
5.55332e-05
5.61717e-05
5.65472e-05
5.7075e-05
5.6952e-05
5.6599e-05
5.5889e-05
5.49215e-05
5.37903e-05
5.26381e-05
5.16013e-05
5.07465e-05
4.99785e-05
4.89476e-05
4.59428e-05
4.17785e-05
3.82968e-05
3.0252e-05
1.78751e-05
5.99541e-06
1.35144e-06
3.74551e-06
3.15289e-05
3.79754e-05
3.54756e-05
3.10431e-05
2.91916e-05
3.22519e-05
3.56212e-05
3.85596e-05
4.07959e-05
4.36011e-05
4.63819e-05
4.85825e-05
5.04395e-05
5.19875e-05
5.32744e-05
5.46682e-05
5.60254e-05
5.74123e-05
5.89027e-05
5.99379e-05
6.05158e-05
6.15062e-05
6.15124e-05
6.11772e-05
6.03151e-05
5.90108e-05
5.73705e-05
5.55817e-05
5.38785e-05
5.24722e-05
5.14301e-05
5.05209e-05
4.85887e-05
4.43354e-05
4.15307e-05
3.52373e-05
2.28751e-05
8.49579e-06
1.9573e-06
3.94164e-06
3.21447e-05
3.91049e-05
3.59107e-05
3.12165e-05
3.15222e-05
3.4652e-05
3.78917e-05
4.06231e-05
4.29338e-05
4.57143e-05
4.80168e-05
5.02011e-05
5.19347e-05
5.35466e-05
5.51683e-05
5.69564e-05
5.88295e-05
6.07556e-05
6.2801e-05
6.42472e-05
6.51448e-05
6.65661e-05
6.68018e-05
6.65349e-05
6.55942e-05
6.40162e-05
6.18897e-05
5.94075e-05
5.68686e-05
5.46359e-05
5.3016e-05
5.20718e-05
5.14238e-05
4.76313e-05
4.36752e-05
3.87966e-05
2.66941e-05
1.09045e-05
2.46559e-06
3.94466e-06
3.21129e-05
3.93404e-05
3.62054e-05
3.20524e-05
3.34891e-05
3.66413e-05
3.97395e-05
4.23128e-05
4.46727e-05
4.70686e-05
4.94803e-05
5.1501e-05
5.33018e-05
5.51619e-05
5.72026e-05
5.94708e-05
6.18864e-05
6.43509e-05
6.69191e-05
6.8768e-05
6.99977e-05
7.17659e-05
7.22947e-05
7.21564e-05
7.12363e-05
6.95193e-05
6.70491e-05
6.39734e-05
6.05818e-05
5.73074e-05
5.46297e-05
5.28509e-05
5.18259e-05
4.97296e-05
4.55483e-05
4.20623e-05
3.07545e-05
1.34151e-05
2.93912e-06
3.89826e-06
3.19093e-05
3.96613e-05
3.65287e-05
3.3032e-05
3.50859e-05
3.82335e-05
4.12108e-05
4.36513e-05
4.58694e-05
4.83355e-05
5.06263e-05
5.26358e-05
5.46243e-05
5.68159e-05
5.92925e-05
6.20355e-05
6.49413e-05
6.78711e-05
7.08623e-05
7.31054e-05
7.46176e-05
7.65952e-05
7.74367e-05
7.74792e-05
7.66768e-05
7.49808e-05
7.23823e-05
6.89572e-05
6.49341e-05
6.07571e-05
5.7058e-05
5.4429e-05
5.29868e-05
5.19059e-05
4.73132e-05
4.42115e-05
3.39673e-05
1.58101e-05
3.38802e-06
3.78301e-06
3.13853e-05
3.95651e-05
3.66584e-05
3.4281e-05
3.63771e-05
3.94762e-05
4.23549e-05
4.46472e-05
4.68953e-05
4.93278e-05
5.15683e-05
5.36656e-05
5.58923e-05
5.8421e-05
6.12891e-05
6.4433e-05
6.77239e-05
7.10028e-05
7.4284e-05
7.68872e-05
7.86115e-05
8.06628e-05
8.17828e-05
8.20353e-05
8.1425e-05
7.98894e-05
7.73695e-05
7.38517e-05
6.94464e-05
6.4505e-05
5.97039e-05
5.59282e-05
5.383e-05
5.32238e-05
4.9601e-05
4.59566e-05
3.70381e-05
1.80613e-05
3.8242e-06
3.57872e-06
3.05841e-05
3.92224e-05
3.68788e-05
3.52403e-05
3.73753e-05
4.04327e-05
4.32256e-05
4.54082e-05
4.77183e-05
5.01137e-05
5.23617e-05
5.45897e-05
5.70483e-05
5.98649e-05
6.30371e-05
6.64694e-05
7.00155e-05
7.35094e-05
7.69327e-05
7.98323e-05
8.17004e-05
8.37272e-05
8.50529e-05
8.55182e-05
8.51506e-05
8.3888e-05
8.16381e-05
7.83072e-05
7.38719e-05
6.85217e-05
6.28364e-05
5.78109e-05
5.44459e-05
5.29954e-05
5.11008e-05
4.69573e-05
3.93613e-05
2.03078e-05
4.25617e-06
3.33343e-06
2.96276e-05
3.86822e-05
3.70919e-05
3.59647e-05
3.81217e-05
4.1139e-05
4.38457e-05
4.60242e-05
4.83645e-05
5.07363e-05
5.30211e-05
5.5378e-05
5.80232e-05
6.10465e-05
6.44147e-05
6.80121e-05
7.16837e-05
7.52643e-05
7.86804e-05
8.17615e-05
8.37487e-05
8.56819e-05
8.71278e-05
8.77838e-05
8.76812e-05
8.67638e-05
8.49203e-05
8.19931e-05
7.78306e-05
7.24312e-05
6.61994e-05
6.01616e-05
5.56851e-05
5.33932e-05
5.20172e-05
4.7863e-05
4.13329e-05
2.23547e-05
4.68349e-06
3.04624e-06
2.8574e-05
3.79921e-05
3.72181e-05
3.64772e-05
3.86325e-05
4.16266e-05
4.4284e-05
4.65056e-05
4.88566e-05
5.12154e-05
5.35398e-05
5.59938e-05
5.87587e-05
6.18952e-05
6.53493e-05
6.8995e-05
7.26768e-05
7.6239e-05
7.95474e-05
8.26005e-05
8.4729e-05
8.65402e-05
8.8025e-05
8.88315e-05
8.89922e-05
8.84571e-05
8.71082e-05
8.47444e-05
8.11051e-05
7.59878e-05
6.95316e-05
6.26274e-05
5.69709e-05
5.40171e-05
5.31157e-05
4.8645e-05
4.2879e-05
2.43947e-05
5.11466e-06
2.75228e-06
2.74404e-05
3.71702e-05
3.7271e-05
3.68463e-05
3.89738e-05
4.19266e-05
4.4571e-05
4.68542e-05
4.92073e-05
5.15551e-05
5.39034e-05
5.64076e-05
5.92187e-05
6.23768e-05
6.58167e-05
6.9409e-05
7.30007e-05
7.64433e-05
7.96082e-05
8.24797e-05
8.4691e-05
8.64052e-05
8.78651e-05
8.87679e-05
8.91701e-05
8.90216e-05
8.82083e-05
8.65052e-05
8.35708e-05
7.90287e-05
7.27223e-05
6.52487e-05
5.83719e-05
5.42429e-05
5.32288e-05
4.94825e-05
4.41501e-05
2.62148e-05
5.54209e-06
2.42816e-06
2.63855e-05
3.62743e-05
3.71638e-05
3.7062e-05
3.90962e-05
4.20577e-05
4.47313e-05
4.70737e-05
4.94216e-05
5.17525e-05
5.40992e-05
5.66031e-05
5.939e-05
6.24891e-05
6.58319e-05
6.92895e-05
7.27139e-05
7.59683e-05
7.89401e-05
8.15711e-05
8.3731e-05
8.53556e-05
8.67183e-05
8.77253e-05
8.83745e-05
8.85895e-05
8.83107e-05
8.73103e-05
8.51854e-05
8.14271e-05
7.55929e-05
6.7903e-05
6.00047e-05
5.46329e-05
5.30524e-05
5.03514e-05
4.52069e-05
2.79968e-05
5.97518e-06
2.16785e-06
2.49511e-05
3.52828e-05
3.702e-05
3.72137e-05
3.91906e-05
4.20052e-05
4.47338e-05
4.7149e-05
4.9496e-05
5.18018e-05
5.41191e-05
5.65745e-05
5.9285e-05
6.22634e-05
6.54368e-05
6.86764e-05
7.18644e-05
7.48888e-05
7.76485e-05
8.00637e-05
8.20431e-05
8.35295e-05
8.46784e-05
8.56884e-05
8.65565e-05
8.72134e-05
8.75554e-05
8.72596e-05
8.59823e-05
8.31389e-05
7.80276e-05
7.04563e-05
6.1751e-05
5.50702e-05
5.25745e-05
5.09817e-05
4.61757e-05
2.95925e-05
6.40348e-06
1.94651e-06
2.33693e-05
3.38935e-05
3.68287e-05
3.71848e-05
3.89607e-05
4.18996e-05
4.46344e-05
4.70884e-05
4.94255e-05
5.16964e-05
5.39621e-05
5.63438e-05
5.88638e-05
6.15923e-05
6.4507e-05
6.75356e-05
7.05388e-05
7.33746e-05
7.59396e-05
7.81638e-05
8.00024e-05
8.14236e-05
8.23729e-05
8.33081e-05
8.41679e-05
8.50532e-05
8.586e-05
8.63435e-05
8.6042e-05
8.41753e-05
7.99481e-05
7.27929e-05
6.35727e-05
5.5721e-05
5.22759e-05
5.12641e-05
4.70681e-05
3.11184e-05
6.83516e-06
1.7496e-06
2.16798e-05
3.23002e-05
3.6569e-05
3.71446e-05
3.88348e-05
4.14234e-05
4.43319e-05
4.68617e-05
4.92065e-05
5.14394e-05
5.36356e-05
5.58003e-05
5.82022e-05
6.08172e-05
6.35884e-05
6.64055e-05
6.91647e-05
7.17518e-05
7.40705e-05
7.60661e-05
7.77242e-05
7.90977e-05
7.99618e-05
8.09253e-05
8.19578e-05
8.28417e-05
8.37841e-05
8.47591e-05
8.5215e-05
8.43853e-05
8.13218e-05
7.47988e-05
6.52988e-05
5.64179e-05
5.206e-05
5.12838e-05
4.78358e-05
3.25559e-05
7.25951e-06
1.56946e-06
1.99277e-05
3.05534e-05
3.59643e-05
3.70576e-05
3.86154e-05
4.11183e-05
4.39119e-05
4.64947e-05
4.88214e-05
5.10085e-05
5.30723e-05
5.52322e-05
5.75124e-05
5.99354e-05
6.24427e-05
6.49813e-05
6.74558e-05
6.97797e-05
7.18768e-05
7.36913e-05
7.52236e-05
7.65448e-05
7.73596e-05
7.83224e-05
7.95214e-05
8.06908e-05
8.20368e-05
8.33484e-05
8.42683e-05
8.42049e-05
8.20755e-05
7.65092e-05
6.68695e-05
5.70974e-05
5.19238e-05
5.12298e-05
4.84935e-05
3.39615e-05
7.68141e-06
1.39994e-06
1.81545e-05
2.87481e-05
3.50097e-05
3.69319e-05
3.82562e-05
4.07142e-05
4.32227e-05
4.59147e-05
4.83088e-05
5.04479e-05
5.24647e-05
5.44864e-05
5.65308e-05
5.86646e-05
6.09013e-05
6.31761e-05
6.54072e-05
6.7513e-05
6.94272e-05
7.11129e-05
7.25742e-05
7.38684e-05
7.46219e-05
7.54904e-05
7.6704e-05
7.80987e-05
7.9782e-05
8.16792e-05
8.33349e-05
8.39335e-05
8.23621e-05
7.76446e-05
6.82546e-05
5.76662e-05
5.1622e-05
5.09902e-05
4.90252e-05
3.53098e-05
8.09085e-06
1.23949e-06
1.63881e-05
2.68356e-05
3.37211e-05
3.68232e-05
3.79924e-05
4.01015e-05
4.27816e-05
4.51304e-05
4.75178e-05
4.96618e-05
5.16662e-05
5.35396e-05
5.54005e-05
5.73141e-05
5.92956e-05
6.13098e-05
6.3298e-05
6.51944e-05
6.6941e-05
6.85017e-05
6.98822e-05
7.11821e-05
7.18982e-05
7.27357e-05
7.39509e-05
7.53927e-05
7.71581e-05
7.93003e-05
8.14647e-05
8.28446e-05
8.2295e-05
7.81625e-05
6.94314e-05
5.81784e-05
5.11767e-05
5.05456e-05
4.94414e-05
3.66142e-05
8.48961e-06
1.08363e-06
1.46425e-05
2.50287e-05
3.19714e-05
3.64702e-05
3.76513e-05
3.94781e-05
4.21005e-05
4.44776e-05
4.66268e-05
4.87521e-05
5.06921e-05
5.24687e-05
5.41722e-05
5.58804e-05
5.76242e-05
5.93949e-05
6.11557e-05
6.28566e-05
6.44485e-05
6.58972e-05
6.7213e-05
6.8542e-05
6.92205e-05
7.00905e-05
7.13752e-05
7.28812e-05
7.47457e-05
7.70904e-05
7.96135e-05
8.15311e-05
8.16641e-05
7.85435e-05
7.0104e-05
5.85331e-05
5.0545e-05
4.99307e-05
4.97722e-05
3.78396e-05
8.8695e-06
9.34693e-07
1.29678e-05
2.31076e-05
3.00994e-05
3.57473e-05
3.73996e-05
3.89457e-05
4.11726e-05
4.37608e-05
4.59019e-05
4.7783e-05
4.95605e-05
5.12337e-05
5.28241e-05
5.43659e-05
5.59062e-05
5.74604e-05
5.90144e-05
6.05362e-05
6.1989e-05
6.33418e-05
6.46324e-05
6.5958e-05
6.66216e-05
6.75866e-05
6.89919e-05
7.05428e-05
7.24789e-05
7.49409e-05
7.76826e-05
7.99473e-05
8.0529e-05
7.79982e-05
7.03192e-05
5.86451e-05
4.97492e-05
4.90257e-05
4.9977e-05
3.89835e-05
9.2308e-06
7.89297e-07
1.13673e-05
2.15208e-05
2.81162e-05
3.41393e-05
3.70433e-05
3.85103e-05
4.0375e-05
4.27509e-05
4.50763e-05
4.70178e-05
4.86583e-05
5.01524e-05
5.15237e-05
5.28627e-05
5.42044e-05
5.55611e-05
5.69289e-05
5.82895e-05
5.9618e-05
6.08835e-05
6.22048e-05
6.34283e-05
6.41603e-05
6.52785e-05
6.67724e-05
6.83587e-05
7.0346e-05
7.28433e-05
7.56477e-05
7.80549e-05
7.8865e-05
7.67417e-05
6.99049e-05
5.80898e-05
4.87704e-05
4.7875e-05
5.00887e-05
4.00157e-05
9.56816e-06
6.62277e-07
1.00171e-05
1.99785e-05
2.60151e-05
3.21568e-05
3.63665e-05
3.80343e-05
3.97489e-05
4.17029e-05
4.39663e-05
4.59895e-05
4.76486e-05
4.90453e-05
5.02845e-05
5.14386e-05
5.25929e-05
5.37662e-05
5.49628e-05
5.61756e-05
5.73879e-05
5.85756e-05
5.99491e-05
6.1001e-05
6.18561e-05
6.31531e-05
6.46818e-05
6.63048e-05
6.83031e-05
7.0743e-05
7.3436e-05
7.57523e-05
7.65314e-05
7.45308e-05
6.82938e-05
5.66929e-05
4.74458e-05
4.64089e-05
5.00797e-05
4.09064e-05
9.88331e-06
5.56115e-07
8.91841e-06
1.88e-05
2.41919e-05
3.00261e-05
3.52034e-05
3.75464e-05
3.92485e-05
4.10275e-05
4.28227e-05
4.47771e-05
4.64765e-05
4.78727e-05
4.90619e-05
5.01032e-05
5.11107e-05
5.2126e-05
5.31675e-05
5.42461e-05
5.53313e-05
5.65231e-05
5.77775e-05
5.87046e-05
5.97615e-05
6.11495e-05
6.26606e-05
6.42997e-05
6.62333e-05
6.84912e-05
7.08684e-05
7.28324e-05
7.33035e-05
7.10632e-05
6.55137e-05
5.47407e-05
4.55383e-05
4.45823e-05
4.98407e-05
4.16317e-05
1.01766e-05
4.69395e-07
8.13067e-06
1.78366e-05
2.274e-05
2.79897e-05
3.32825e-05
3.69257e-05
3.88353e-05
4.05926e-05
4.22858e-05
4.38099e-05
4.53572e-05
4.67307e-05
4.78963e-05
4.88982e-05
4.97968e-05
5.06803e-05
5.15809e-05
5.25366e-05
5.34811e-05
5.46708e-05
5.5798e-05
5.65747e-05
5.77762e-05
5.91861e-05
6.06039e-05
6.21607e-05
6.38914e-05
6.57906e-05
6.76065e-05
6.89442e-05
6.88046e-05
6.62457e-05
6.09905e-05
5.13428e-05
4.28968e-05
4.25307e-05
4.94215e-05
4.20861e-05
1.04544e-05
3.96734e-07
7.65756e-06
1.7109e-05
2.19762e-05
2.64665e-05
3.13219e-05
3.57509e-05
3.84351e-05
4.02692e-05
4.19138e-05
4.33677e-05
4.46229e-05
4.57441e-05
4.67948e-05
4.7762e-05
4.86123e-05
4.94113e-05
5.0202e-05
5.10508e-05
5.18601e-05
5.29801e-05
5.39315e-05
5.46677e-05
5.57853e-05
5.70516e-05
5.82543e-05
5.95405e-05
6.08326e-05
6.21268e-05
6.30964e-05
6.35675e-05
6.26291e-05
5.98509e-05
5.47901e-05
4.71897e-05
4.09088e-05
4.08081e-05
4.8873e-05
4.17853e-05
1.07297e-05
3.51379e-07
7.60774e-06
1.62819e-05
2.14324e-05
2.51723e-05
2.98117e-05
3.41358e-05
3.79602e-05
4.04423e-05
4.2201e-05
4.36565e-05
4.48387e-05
4.58112e-05
4.66049e-05
4.73075e-05
4.7967e-05
4.86029e-05
4.92274e-05
4.99054e-05
5.05373e-05
5.13708e-05
5.21568e-05
5.26542e-05
5.34254e-05
5.43148e-05
5.50368e-05
5.57483e-05
5.62679e-05
5.66829e-05
5.65595e-05
5.60776e-05
5.43382e-05
5.17076e-05
4.72494e-05
4.16375e-05
3.76694e-05
3.97123e-05
4.80791e-05
4.13946e-05
1.10205e-05
3.52605e-07
8.34015e-06
1.58746e-05
2.08499e-05
2.4585e-05
2.87916e-05
3.30876e-05
3.66546e-05
3.99542e-05
4.23799e-05
4.39374e-05
4.51427e-05
4.60888e-05
4.68316e-05
4.74281e-05
4.79237e-05
4.83478e-05
4.8724e-05
4.90047e-05
4.9189e-05
4.93694e-05
4.95636e-05
4.96209e-05
4.96975e-05
4.9812e-05
4.97057e-05
4.95505e-05
4.90421e-05
4.84913e-05
4.73376e-05
4.62177e-05
4.41366e-05
4.20966e-05
3.89254e-05
3.59749e-05
3.46737e-05
3.80996e-05
4.68448e-05
4.04661e-05
1.11563e-05
4.49346e-07
1.00996e-05
1.62202e-05
2.13684e-05
2.52392e-05
2.93185e-05
3.33383e-05
3.73434e-05
4.07244e-05
4.37163e-05
4.61184e-05
4.74465e-05
4.8213e-05
4.85269e-05
4.85001e-05
4.82132e-05
4.77494e-05
4.71457e-05
4.65302e-05
4.57687e-05
4.512e-05
4.41639e-05
4.37095e-05
4.29232e-05
4.19081e-05
4.08677e-05
3.99847e-05
3.87664e-05
3.77753e-05
3.64172e-05
3.55482e-05
3.42075e-05
3.36505e-05
3.26591e-05
3.27782e-05
3.39544e-05
3.88441e-05
4.57463e-05
3.85434e-05
1.11984e-05
6.24196e-07
1.22132e-05
1.81187e-05
2.23541e-05
2.64536e-05
3.06814e-05
3.45151e-05
3.8019e-05
4.06786e-05
4.27059e-05
4.45155e-05
4.54593e-05
4.55941e-05
4.52818e-05
4.46481e-05
4.36935e-05
4.25657e-05
4.12807e-05
4.00131e-05
3.84806e-05
3.70204e-05
3.58504e-05
3.45011e-05
3.3067e-05
3.19328e-05
3.08752e-05
3.0083e-05
2.93751e-05
2.91014e-05
2.88341e-05
2.91187e-05
2.94456e-05
3.05852e-05
3.1749e-05
3.40282e-05
3.6782e-05
4.15819e-05
4.39157e-05
3.6813e-05
1.10195e-05
9.90361e-07
1.57689e-05
1.93642e-05
2.35607e-05
2.74434e-05
3.11022e-05
3.4153e-05
3.65828e-05
3.83627e-05
3.90213e-05
3.95815e-05
3.97304e-05
3.92626e-05
3.83862e-05
3.73534e-05
3.59861e-05
3.47477e-05
3.35334e-05
3.25239e-05
3.13549e-05
3.0347e-05
2.96035e-05
2.90576e-05
2.86684e-05
2.84857e-05
2.85335e-05
2.87823e-05
2.92999e-05
3.0056e-05
3.10698e-05
3.24597e-05
3.40293e-05
3.60973e-05
3.81752e-05
4.10153e-05
4.34081e-05
4.57626e-05
4.2898e-05
3.36977e-05
1.045e-05
1.82306e-06
1.8871e-05
2.11908e-05
2.54775e-05
2.86007e-05
3.10986e-05
3.29914e-05
3.43397e-05
3.53046e-05
3.57109e-05
3.58757e-05
3.59487e-05
3.59023e-05
3.57193e-05
3.55057e-05
3.52771e-05
3.51177e-05
3.50095e-05
3.50308e-05
3.51418e-05
3.53431e-05
3.56662e-05
3.60784e-05
3.66441e-05
3.72641e-05
3.80731e-05
3.88914e-05
3.99402e-05
4.09649e-05
4.22246e-05
4.35254e-05
4.48669e-05
4.66275e-05
4.76535e-05
4.95345e-05
4.86585e-05
4.68369e-05
4.1075e-05
2.58532e-05
9.28718e-06
1.23017e-06
2.00555e-06
2.70561e-06
3.50461e-06
4.22555e-06
4.86315e-06
5.4074e-06
5.85151e-06
6.20859e-06
6.47458e-06
6.65847e-06
6.78138e-06
6.85626e-06
6.89643e-06
6.90834e-06
6.90526e-06
6.89712e-06
6.88401e-06
6.8747e-06
6.87706e-06
6.88628e-06
6.90855e-06
6.95511e-06
7.003e-06
7.10126e-06
7.17893e-06
7.33737e-06
7.44823e-06
7.674e-06
7.8181e-06
8.10767e-06
8.28016e-06
8.61036e-06
8.84053e-06
9.32651e-06
9.61622e-06
1.00831e-05
1.00703e-05
9.70654e-06
8.09917e-06
)
;

boundaryField
{
    movingWall
    {
        type            nutkWallFunction;
        Cmu             0.09;
        kappa           0.41;
        E               9.8;
        value           uniform 0;
    }
    fixedWalls
    {
        type            nutkWallFunction;
        Cmu             0.09;
        kappa           0.41;
        E               9.8;
        value           uniform 0;
    }
    frontAndBack
    {
        type            empty;
    }
}


// ************************************************************************* //
