/*--------------------------------*- C++ -*----------------------------------*\
  =========                 |
  \\      /  F ield         | OpenFOAM: The Open Source CFD Toolbox
   \\    /   O peration     | Website:  https://openfoam.org
    \\  /    A nd           | Version:  12
     \\/     M anipulation  |
\*---------------------------------------------------------------------------*/
FoamFile
{
    format      ascii;
    class       volScalarField;
    location    "4.5";
    object      p;
}
// * * * * * * * * * * * * * * * * * * * * * * * * * * * * * * * * * * * * * //

dimensions      [0 2 -2 0 0 0 0];

internalField   nonuniform List<scalar> 
1600
(
3.4602e-08
-1.48358e-05
-8.051e-05
-0.000180409
-0.000279376
-0.000364715
-0.000444666
-0.000539688
-0.000660926
-0.000808973
-0.000990575
-0.00124942
-0.00161456
-0.00185601
-0.00200512
-0.00235141
-0.00294215
-0.00366613
-0.00439543
-0.00501094
-0.00542443
-0.00557096
-0.00540205
-0.0048779
-0.00400561
-0.00279981
-0.00126525
0.000553739
0.0025678
0.00460195
0.00641234
0.00772032
0.00831988
0.00817337
0.00732884
0.00645726
0.00590951
0.00580501
0.00587015
0.00589923
-1.04388e-05
-4.35787e-05
-0.000116212
-0.000214841
-0.000295042
-0.000350848
-0.000401069
-0.00047564
-0.000582151
-0.000707706
-0.000830668
-0.00100866
-0.00133556
-0.00177058
-0.00224752
-0.00281663
-0.00349924
-0.00424257
-0.00495723
-0.00554902
-0.00594339
-0.00608584
-0.00593465
-0.00546603
-0.00467871
-0.00354703
-0.00208812
-0.000343589
0.00159361
0.00357771
0.00539745
0.00678535
0.00751745
0.0075086
0.00685035
0.00600958
0.00557871
0.00562465
0.00575005
0.00581091
-1.59049e-05
-8.23808e-05
-0.000176802
-0.000275624
-0.000335095
-0.00035323
-0.000360897
-0.000383706
-0.000445828
-0.000601163
-0.000882491
-0.00126244
-0.00175283
-0.00235765
-0.00305826
-0.00382228
-0.0046055
-0.00536114
-0.00603597
-0.0065759
-0.00693235
-0.00705704
-0.00692128
-0.00650677
-0.00578613
-0.0047543
-0.0034243
-0.00182852
-3.2542e-05
0.00185845
0.0036713
0.00518996
0.0061927
0.00653339
0.00627159
0.0057518
0.00547719
0.00551405
0.00563802
0.00567879
5.53368e-06
-9.52103e-05
-0.000222511
-0.000314095
-0.000346433
-0.000340562
-0.000341156
-0.000386201
-0.000519059
-0.000809972
-0.00130182
-0.00195751
-0.00270917
-0.0035211
-0.00437155
-0.00522536
-0.00603988
-0.00678133
-0.00741853
-0.00791736
-0.00823868
-0.00834212
-0.00820907
-0.00782505
-0.00717685
-0.00626014
-0.00508436
-0.00367155
-0.0020633
-0.000325019
0.00142898
0.0030462
0.00433731
0.00514533
0.00547448
0.00548852
0.00550394
0.00552584
0.00558016
0.00557462
0.000128111
-2.04385e-05
-0.000168951
-0.000261127
-0.000299009
-0.000317694
-0.000375492
-0.000538262
-0.000869753
-0.00141552
-0.00216824
-0.00306038
-0.00401345
-0.00497433
-0.00590896
-0.00679557
-0.00761473
-0.00834999
-0.0089652
-0.00942256
-0.00969433
-0.00977098
-0.0096418
-0.00929607
-0.00872329
-0.0079238
-0.00690052
-0.00566421
-0.00423935
-0.0026729
-0.0010346
0.000583924
0.00207405
0.00332999
0.00429324
0.00496481
0.0053995
0.00560401
0.00556027
0.00549503
0.000398843
0.0001901
2.36703e-05
-9.49367e-05
-0.000185868
-0.000302311
-0.00051909
-0.000912695
-0.00152908
-0.00235997
-0.00334758
-0.00441384
-0.00549442
-0.00653981
-0.00752543
-0.00843522
-0.00924534
-0.00993319
-0.0104763
-0.0108666
-0.0110934
-0.0111486
-0.011027
-0.0107209
-0.0102253
-0.0095402
-0.00866667
-0.00760843
-0.00637474
-0.00498556
-0.00347532
-0.00189631
-0.000311895
0.00123726
0.00270374
0.00398969
0.00494619
0.0054979
0.00548743
0.0053806
0.000796001
0.00054208
0.000334288
0.000153373
-4.96962e-05
-0.000348507
-0.00082019
-0.00151679
-0.00243401
-0.00351818
-0.00468899
-0.00587708
-0.00703186
-0.0081159
-0.00910609
-0.00998496
-0.0107415
-0.0113641
-0.0118443
-0.0121801
-0.0123676
-0.0124033
-0.0122851
-0.0120097
-0.0115763
-0.0109853
-0.0102377
-0.00933451
-0.00827722
-0.00706933
-0.0057186
-0.00423831
-0.00264178
-0.000939325
0.000834506
0.00258009
0.00406706
0.00505406
0.00541949
0.00521359
0.0012642
0.000974535
0.000684829
0.000398845
2.46276e-05
-0.000524776
-0.00130238
-0.00230856
-0.00349278
-0.00477305
-0.00607124
-0.00733184
-0.00851383
-0.00959052
-0.0105463
-0.0113728
-0.0120673
-0.0126273
-0.013052
-0.0133415
-0.0134955
-0.013514
-0.013397
-0.0131452
-0.0127596
-0.0122418
-0.0115929
-0.0108126
-0.00989897
-0.0088472
-0.00765035
-0.0062983
-0.00477427
-0.0030544
-0.00113549
0.000896176
0.00280832
0.0043115
0.00516624
0.00487165
0.00167599
0.00132425
0.000949629
0.000533579
-5.19288e-05
-0.000880887
-0.00195801
-0.00323471
-0.00462459
-0.0060395
-0.00741316
-0.00870164
-0.00987468
-0.0109169
-0.0118224
-0.0125911
-0.0132258
-0.0137294
-0.0141049
-0.0143546
-0.0144807
-0.0144852
-0.0143697
-0.0141365
-0.013788
-0.0133265
-0.0127538
-0.0120697
-0.0112708
-0.0103486
-0.00928803
-0.00806629
-0.00665084
-0.0049986
-0.00306961
-0.000896717
0.00130943
0.00325001
0.00451816
0.00459873
0.00190409
0.00149798
0.00103058
0.000468225
-0.000338226
-0.00143227
-0.00276097
-0.00424252
-0.00577134
-0.00726484
-0.00866895
-0.00995087
-0.0110919
-0.0120868
-0.0129374
-0.0136495
-0.0142297
-0.014684
-0.0150179
-0.0152353
-0.0153399
-0.0153345
-0.0152214
-0.0150035
-0.0146837
-0.0142651
-0.0137499
-0.0131386
-0.0124284
-0.0116105
-0.0106676
-0.009572
-0.00828404
-0.00675062
-0.00490575
-0.00272114
-0.000364244
0.00183638
0.00354774
0.00446836
0.00186686
0.00141857
0.000862646
0.000156339
-0.000849529
-0.0021574
-0.00367674
-0.00528689
-0.00689399
-0.00841774
-0.00981704
-0.0110688
-0.0121646
-0.013107
-0.0139034
-0.0145632
-0.0150958
-0.0155093
-0.01581
-0.0160032
-0.0160926
-0.0160812
-0.0159718
-0.0157671
-0.0154705
-0.015085
-0.0146134
-0.0140572
-0.0134146
-0.0126783
-0.0118325
-0.0108498
-0.00969018
-0.00829942
-0.00660373
-0.00452899
-0.00214702
0.000148963
0.00215622
0.00356464
0.00154353
0.00106241
0.000431045
-0.000396735
-0.00156399
-0.00302032
-0.00465342
-0.00633002
-0.00796424
-0.00948038
-0.0108496
-0.0120565
-0.0131006
-0.0139899
-0.0147356
-0.0153495
-0.0158424
-0.0162232
-0.0164988
-0.0166745
-0.016754
-0.01674
-0.0166354
-0.0164429
-0.0161654
-0.0158063
-0.0153686
-0.0148545
-0.0142639
-0.0135918
-0.0128257
-0.0119419
-0.0109031
-0.00965845
-0.00813916
-0.0062525
-0.0039675
-0.00168869
0.000334546
0.00181149
0.00095257
0.000453984
-0.000232908
-0.00115155
-0.00242147
-0.00396791
-0.0056452
-0.00734103
-0.00896099
-0.0104428
-0.0117654
-0.0129195
-0.0139103
-0.0147492
-0.0154495
-0.0160243
-0.0164849
-0.0168403
-0.0170973
-0.0172608
-0.0173343
-0.0173203
-0.0172212
-0.0170397
-0.0167787
-0.0164411
-0.0160305
-0.0155495
-0.0149996
-0.0143784
-0.0136773
-0.0128779
-0.0119483
-0.0108426
-0.00949967
-0.00783323
-0.00577748
-0.00358823
-0.00171822
-0.000378597
0.00015202
-0.000346331
-0.00106405
-0.00204297
-0.00336223
-0.00493915
-0.00661307
-0.00828998
-0.00986833
-0.0112991
-0.0125663
-0.0136651
-0.0146044
-0.0153973
-0.0160582
-0.0166003
-0.0170351
-0.0173709
-0.0176142
-0.0177694
-0.0178396
-0.0178269
-0.0177337
-0.0175623
-0.0173153
-0.0169959
-0.0166074
-0.0161532
-0.015636
-0.015056
-0.0144085
-0.0136808
-0.0128477
-0.0118698
-0.0106936
-0.00924892
-0.00746701
-0.00545513
-0.00381778
-0.00268794
-0.000775593
-0.00126045
-0.00198573
-0.00299179
-0.00432424
-0.00588367
-0.00752319
-0.00915434
-0.010675
-0.0120464
-0.0132553
-0.0143004
-0.0151921
-0.0159443
-0.0165716
-0.0170869
-0.0175009
-0.0178217
-0.0180548
-0.0182042
-0.0182728
-0.0182623
-0.0181747
-0.0180123
-0.0177774
-0.0174732
-0.0171031
-0.016671
-0.0161806
-0.0156344
-0.0150313
-0.0143639
-0.0136142
-0.0127505
-0.0117278
-0.0104927
-0.0089776
-0.00720839
-0.00580226
-0.00488054
-0.00174827
-0.00220955
-0.00292556
-0.00392967
-0.00524211
-0.0067562
-0.00834771
-0.00991728
-0.0113731
-0.0126832
-0.0138355
-0.0148309
-0.0156803
-0.0163976
-0.0169967
-0.0174901
-0.0178876
-0.0181966
-0.0184221
-0.0185675
-0.0186353
-0.0186271
-0.0185447
-0.01839
-0.0181654
-0.0178738
-0.0175189
-0.017105
-0.0166367
-0.0161182
-0.0155515
-0.014934
-0.0142544
-0.0134887
-0.0126001
-0.0115439
-0.0102676
-0.00879349
-0.00760008
-0.00683257
-0.00268884
-0.00312166
-0.00381669
-0.0047985
-0.00607161
-0.00752822
-0.00906256
-0.0105656
-0.0119569
-0.0132085
-0.0143092
-0.0152608
-0.0160739
-0.0167619
-0.017338
-0.0178137
-0.0181982
-0.018498
-0.0187176
-0.0188601
-0.0189276
-0.0189216
-0.0188435
-0.0186952
-0.018479
-0.0181977
-0.0178551
-0.0174558
-0.0170054
-0.0165092
-0.015972
-0.0153951
-0.0147728
-0.0140886
-0.0133129
-0.0124061
-0.0113313
-0.010127
-0.00913476
-0.00849194
-0.00353849
-0.00393693
-0.0046034
-0.00555397
-0.00678194
-0.00817842
-0.00965201
-0.0110904
-0.0124225
-0.0136219
-0.0146779
-0.0155926
-0.0163758
-0.0170402
-0.017598
-0.0180599
-0.0184343
-0.018727
-0.0189423
-0.0190826
-0.01915
-0.0191457
-0.0190711
-0.0189277
-0.0187179
-0.0184444
-0.0181113
-0.0177233
-0.0172865
-0.0168076
-0.0162933
-0.0157483
-0.0151717
-0.0145533
-0.0138692
-0.0130851
-0.01218
-0.0112017
-0.0103845
-0.00984018
-0.00424888
-0.00461639
-0.00524927
-0.00616598
-0.00734969
-0.00869056
-0.0101061
-0.0114862
-0.0127669
-0.0139224
-0.0149421
-0.0158274
-0.0165875
-0.0172339
-0.017778
-0.0182298
-0.0185967
-0.0188844
-0.0190964
-0.0192353
-0.0193025
-0.0192994
-0.0192271
-0.0190872
-0.0188818
-0.0186138
-0.0182871
-0.0179069
-0.0174797
-0.0170131
-0.0165152
-0.0159934
-0.0154512
-0.0148836
-0.0142723
-0.0135876
-0.0128198
-0.0120118
-0.0113435
-0.0108822
-0.00480028
-0.005129
-0.00573295
-0.00661882
-0.0077603
-0.00905327
-0.0104188
-0.0117496
-0.0129884
-0.0141094
-0.0151015
-0.0159654
-0.0167092
-0.0173433
-0.0178784
-0.0183235
-0.0186858
-0.0189703
-0.0191804
-0.0193183
-0.0193854
-0.0193829
-0.019312
-0.0191739
-0.0189708
-0.0187057
-0.0183824
-0.0180065
-0.0175845
-0.017125
-0.0166371
-0.0161304
-0.0156114
-0.01508
-0.0145237
-0.0139184
-0.0132584
-0.0125812
-0.0120283
-0.0116326
-0.00517233
-0.00546937
-0.00605073
-0.00690901
-0.00800937
-0.0092625
-0.0105871
-0.0118784
-0.0130855
-0.0141818
-0.0151552
-0.0160058
-0.0167401
-0.0173679
-0.0178987
-0.018341
-0.0187015
-0.0189849
-0.0191944
-0.019332
-0.0193991
-0.0193968
-0.019326
-0.0191882
-0.0189853
-0.0187204
-0.0183974
-0.0180218
-0.0176007
-0.0171429
-0.0166587
-0.016159
-0.0156529
-0.0151441
-0.0146263
-0.0140813
-0.0135037
-0.0129217
-0.0124552
-0.0121119
-0.00535387
-0.0056348
-0.00620242
-0.0070393
-0.0081015
-0.00931973
-0.0106105
-0.0118724
-0.0130575
-0.0141384
-0.015102
-0.015947
-0.016679
-0.0173063
-0.0178378
-0.0182814
-0.0186433
-0.018928
-0.0191386
-0.0192769
-0.0193443
-0.0193416
-0.01927
-0.0191307
-0.0189259
-0.0186584
-0.0183323
-0.0179532
-0.0175283
-0.0170669
-0.0165798
-0.0160791
-0.015576
-0.0150774
-0.0145826
-0.0140808
-0.013566
-0.0130538
-0.0126475
-0.0123409
-0.00537046
-0.00563877
-0.00619548
-0.00701597
-0.00804639
-0.00923051
-0.0104937
-0.0117342
-0.0129051
-0.0139785
-0.0149401
-0.0157872
-0.0165237
-0.0171568
-0.0176944
-0.0181438
-0.0185108
-0.0187996
-0.0190133
-0.0191535
-0.0192217
-0.0192185
-0.0191451
-0.0190027
-0.0187935
-0.0185204
-0.0181876
-0.0178007
-0.0173673
-0.0168968
-0.0164005
-0.0158912
-0.0153816
-0.0148816
-0.0143958
-0.0139201
-0.0134503
-0.0129871
-0.0126331
-0.0123384
-0.00525323
-0.00550718
-0.00605086
-0.00685623
-0.0078581
-0.00900454
-0.0102415
-0.0114659
-0.0126283
-0.0137006
-0.0146673
-0.0155235
-0.0162715
-0.0169169
-0.0174664
-0.0179266
-0.0183028
-0.0185992
-0.0188184
-0.0189623
-0.0190321
-0.0190286
-0.0189527
-0.0188057
-0.0185898
-0.018308
-0.0179645
-0.0175652
-0.0171179
-0.0166325
-0.0161207
-0.0155955
-0.0150706
-0.0145584
-0.0140685
-0.0136033
-0.0131624
-0.0127315
-0.0124442
-0.0121188
-0.00503533
-0.00527309
-0.00579721
-0.00657962
-0.0075534
-0.00866096
-0.00986098
-0.0110701
-0.0122274
-0.0133033
-0.0142808
-0.0151528
-0.0159192
-0.0165835
-0.0171512
-0.0176278
-0.0180181
-0.0183259
-0.0185539
-0.0187038
-0.0187765
-0.0187731
-0.0186943
-0.0185414
-0.0183166
-0.0180231
-0.0176651
-0.0172488
-0.0167822
-0.0162756
-0.0157413
-0.0151928
-0.0146442
-0.0141098
-0.0136035
-0.0131343
-0.0127089
-0.0122912
-0.0120845
-0.0116956
-0.00475856
-0.00497555
-0.00546784
-0.00621225
-0.00714535
-0.0082109
-0.0093666
-0.0105532
-0.0117038
-0.0127853
-0.0137779
-0.0146715
-0.0154628
-0.016153
-0.0167456
-0.0172449
-0.017655
-0.017979
-0.0182196
-0.0183781
-0.0184558
-0.0184534
-0.0183716
-0.0182118
-0.0179762
-0.017668
-0.0172918
-0.0168537
-0.0163624
-0.0158285
-0.0152647
-0.0146852
-0.0141048
-0.0135389
-0.0130052
-0.0125218
-0.0121007
-0.0116732
-0.0115158
-0.0110846
-0.00447074
-0.004657
-0.00509669
-0.00578104
-0.00665361
-0.00766374
-0.00876853
-0.00992126
-0.0110594
-0.0121456
-0.0131559
-0.0140759
-0.0148985
-0.0156217
-0.0162464
-0.0167754
-0.0172114
-0.0175573
-0.0178149
-0.0179858
-0.0180708
-0.0180709
-0.0179866
-0.0178192
-0.0175712
-0.0172457
-0.0168475
-0.0163832
-0.0158617
-0.0152945
-0.0146944
-0.0140764
-0.0134558
-0.0128492
-0.0122784
-0.0117723
-0.0113497
-0.0108837
-0.010754
-0.0102969
-0.00421736
-0.00435338
-0.00471174
-0.00530973
-0.00609972
-0.00703386
-0.0080745
-0.00918046
-0.010297
-0.011384
-0.0124126
-0.0133628
-0.0142226
-0.0149858
-0.0156503
-0.0162165
-0.0166856
-0.0170595
-0.0173396
-0.0175271
-0.0176229
-0.0176275
-0.0175418
-0.0173669
-0.0171054
-0.0167605
-0.0163371
-0.0158422
-0.0152855
-0.0146788
-0.0140357
-0.0133716
-0.0127025
-0.0120464
-0.011429
-0.0108897
-0.0104506
-0.0099317
-0.00985145
-0.00932447
-0.00402315
-0.00408395
-0.00433113
-0.00481848
-0.00550322
-0.00633786
-0.00729339
-0.00833683
-0.00942036
-0.0105018
-0.0115472
-0.0125302
-0.0134325
-0.0142428
-0.014955
-0.0155664
-0.0160764
-0.0164854
-0.0167941
-0.0170034
-0.0171138
-0.017126
-0.0170407
-0.0168592
-0.0165838
-0.0162181
-0.0157671
-0.0152382
-0.0146417
-0.0139899
-0.0132973
-0.0125794
-0.0118536
-0.0111388
-0.0104652
-0.00988035
-0.0094078
-0.00883018
-0.00879778
-0.00813714
-0.0038808
-0.00383163
-0.00396178
-0.00432413
-0.00487962
-0.00558917
-0.0064362
-0.00739878
-0.00843575
-0.00950347
-0.0105623
-0.0115791
-0.0125283
-0.0133924
-0.0141602
-0.0148252
-0.0153842
-0.0158359
-0.0161802
-0.0164171
-0.0165471
-0.0165707
-0.0164886
-0.0163022
-0.0160137
-0.015627
-0.0151471
-0.014582
-0.0139421
-0.0132405
-0.0124922
-0.0117131
-0.010922
-0.0101389
-0.00939904
-0.00875537
-0.00823039
-0.00756222
-0.00759957
-0.00667588
-0.00370999
-0.00356966
-0.00361251
-0.00383956
-0.00423979
-0.00479817
-0.00551394
-0.00637694
-0.0073529
-0.00839739
-0.00946517
-0.0105155
-0.011515
-0.0124387
-0.0132695
-0.0139962
-0.0146126
-0.0151151
-0.0155022
-0.0157733
-0.0159285
-0.0159682
-0.0158932
-0.0157048
-0.0154053
-0.0149988
-0.0144906
-0.0138886
-0.0132036
-0.0124489
-0.0116399
-0.0107927
-0.00992766
-0.0090663
-0.00824883
-0.00752966
-0.00692545
-0.00612656
-0.00625443
-0.00486333
-0.00346924
-0.00332119
-0.00329618
-0.00337268
-0.00359198
-0.00397431
-0.00453817
-0.00528473
-0.00618651
-0.00719849
-0.00827011
-0.00935268
-0.0104044
-0.0113923
-0.0122925
-0.0130886
-0.0137702
-0.0143313
-0.0147687
-0.0150809
-0.0152677
-0.0153291
-0.015266
-0.0150801
-0.0147733
-0.0143502
-0.0138163
-0.0131792
-0.0124497
-0.0116408
-0.0107679
-0.00984679
-0.00889942
-0.00794879
-0.00703971
-0.00622321
-0.0055085
-0.00455605
-0.00471498
-0.00265831
-0.00322302
-0.00311626
-0.00301734
-0.00292667
-0.00294272
-0.00312675
-0.00352087
-0.00413838
-0.00495704
-0.00593008
-0.00700133
-0.00811449
-0.00921913
-0.0102741
-0.0112482
-0.0121194
-0.0128729
-0.0134997
-0.0139944
-0.0143546
-0.0145794
-0.014669
-0.0146241
-0.0144468
-0.0141385
-0.0137045
-0.0131503
-0.012483
-0.0117128
-0.0108515
-0.00991384
-0.00891468
-0.00787681
-0.00682445
-0.00580667
-0.00486246
-0.00399793
-0.00287691
-0.00288121
-9.59195e-05
-0.00301993
-0.00295169
-0.00276649
-0.00249999
-0.00229631
-0.00226517
-0.00247789
-0.00296005
-0.00369229
-0.00462482
-0.00569439
-0.00683701
-0.00799426
-0.00911713
-0.0101674
-0.011117
-0.0119469
-0.0126444
-0.0132023
-0.0136166
-0.0138859
-0.0140104
-0.0139905
-0.0138284
-0.0135283
-0.0130924
-0.0125267
-0.0118379
-0.0110346
-0.0101263
-0.00912579
-0.00804562
-0.00690842
-0.00573619
-0.00457897
-0.00345791
-0.0023809
-0.00102069
-0.000659467
0.00282264
-0.002819
-0.00278903
-0.0025175
-0.0020758
-0.00164642
-0.0013958
-0.00142737
-0.00177797
-0.00242859
-0.00332439
-0.00439496
-0.00556819
-0.00677781
-0.00796771
-0.0090934
-0.0101217
-0.0110291
-0.0117998
-0.0124245
-0.0128977
-0.0132175
-0.0133838
-0.0133975
-0.0132605
-0.0129769
-0.0125501
-0.0119844
-0.0112854
-0.0104596
-0.00951245
-0.00845275
-0.00728744
-0.00603615
-0.00471102
-0.00335557
-0.0019626
-0.000545265
0.00122692
0.00218878
0.00650098
-0.00260486
-0.00258553
-0.0022467
-0.00163407
-0.000988285
-0.000535877
-0.000404195
-0.000638592
-0.00121965
-0.00208666
-0.00316171
-0.0043658
-0.00562589
-0.00687954
-0.00807704
-0.00918086
-0.0101638
-0.0110074
-0.0117
-0.0122349
-0.0126097
-0.0128237
-0.012878
-0.0127747
-0.0125176
-0.0121094
-0.0115537
-0.0108538
-0.0100145
-0.00903621
-0.0079205
-0.00666253
-0.00527277
-0.00373895
-0.0020824
-0.00024019
0.00177815
0.00434171
0.00643566
0.0123764
-0.00236374
-0.00234637
-0.00191856
-0.00115798
-0.000319297
0.000296054
0.000556403
0.000413358
-0.000113055
-0.000958568
-0.00203961
-0.00327167
-0.00457729
-0.00588936
-0.00715374
-0.00832898
-0.00938485
-0.0102999
-0.0110605
-0.0116584
-0.0120906
-0.0123557
-0.012455
-0.0123903
-0.0121649
-0.0117804
-0.01124
-0.0105427
-0.00969122
-0.00868489
-0.00751398
-0.00615428
-0.00459489
-0.00277369
-0.000667758
0.00190507
0.00497868
0.00912667
0.013701
0.0233817
-0.00228995
-0.00220314
-0.00160994
-0.000684569
0.000291585
0.0010394
0.00138439
0.00129729
0.00079983
-4.03689e-05
-0.00113574
-0.00239678
-0.00374292
-0.00510443
-0.00642466
-0.00765928
-0.00877587
-0.00975067
-0.0105689
-0.0112208
-0.0117024
-0.0120115
-0.0121501
-0.0121187
-0.0119209
-0.011557
-0.0110309
-0.0103389
-0.00948001
-0.00843142
-0.00719662
-0.00572929
-0.00397985
-0.00180507
0.000893435
0.00452193
0.00925947
0.0163934
0.025974
0.0427148
-0.00318376
-0.00247023
-0.00147486
-0.000293274
0.00083688
0.00166458
0.00206851
0.00201402
0.00152938
0.000687465
-0.000421574
-0.00170728
-0.00308809
-0.00449204
-0.00585994
-0.00714411
-0.00830981
-0.0093312
-0.0101933
-0.0108852
-0.0114027
-0.0117426
-0.0119076
-0.0118972
-0.0117159
-0.0113623
-0.0108398
-0.0101418
-0.00926625
-0.00819821
-0.00691839
-0.00536955
-0.00344756
-0.000991958
0.00230956
0.0071454
0.0142323
0.0261913
0.0438512
0.0707637
-0.00529417
-0.00165443
-0.000171608
0.000963529
0.00199043
0.00274952
0.00308985
0.00297084
0.00242605
0.00152893
0.00036891
-0.000966075
-0.00239733
-0.00385359
-0.00527394
-0.0066082
-0.00781961
-0.00888211
-0.00977915
-0.0105011
-0.0110433
-0.0114043
-0.0115844
-0.0115865
-0.0114117
-0.0110629
-0.0105376
-0.00983283
-0.00893632
-0.00783527
-0.00649047
-0.00491528
-0.00287287
-0.000457707
0.00340522
0.00904553
0.0194185
0.037081
0.0645832
0.100221
)
;

boundaryField
{
    movingWall
    {
        type            zeroGradient;
    }
    fixedWalls
    {
        type            zeroGradient;
    }
    frontAndBack
    {
        type            empty;
    }
}


// ************************************************************************* //
