/*--------------------------------*- C++ -*----------------------------------*\
  =========                 |
  \\      /  F ield         | OpenFOAM: The Open Source CFD Toolbox
   \\    /   O peration     | Website:  https://openfoam.org
    \\  /    A nd           | Version:  12
     \\/     M anipulation  |
\*---------------------------------------------------------------------------*/
FoamFile
{
    format      ascii;
    class       surfaceScalarField;
    location    "4.5";
    object      phi;
}
// * * * * * * * * * * * * * * * * * * * * * * * * * * * * * * * * * * * * * //

dimensions      [0 3 -1 0 0 0 0];

internalField   nonuniform List<scalar> 
3120
(
7.36106e-08
-7.36139e-08
1.87639e-07
-1.14029e-07
2.79005e-07
-9.13654e-08
3.19705e-07
-4.07007e-08
3.21945e-07
-2.24038e-09
3.10226e-07
1.1719e-08
3.01042e-07
9.18414e-09
2.93326e-07
7.71603e-09
2.71533e-07
2.17929e-08
2.24625e-07
4.69076e-08
1.41107e-07
8.35187e-08
-2.2986e-08
1.64092e-07
-2.87647e-07
2.64661e-07
-6.81028e-07
3.93381e-07
-1.18345e-06
5.0242e-07
-1.70685e-06
5.23403e-07
-2.19453e-06
4.87678e-07
-2.62253e-06
4.28004e-07
-2.98251e-06
3.59977e-07
-3.2746e-06
2.92091e-07
-3.49939e-06
2.24791e-07
-3.6591e-06
1.59702e-07
-3.75314e-06
9.40486e-08
-3.7816e-06
2.84524e-08
-3.73745e-06
-4.41433e-08
-3.62401e-06
-1.1344e-07
-3.42971e-06
-1.94307e-07
-3.15177e-06
-2.77938e-07
-2.78343e-06
-3.68341e-07
-2.32477e-06
-4.5866e-07
-1.77761e-06
-5.47163e-07
-1.16051e-06
-6.17099e-07
-5.2522e-07
-6.35286e-07
5.54559e-08
-5.80676e-07
5.13446e-07
-4.5799e-07
6.94628e-07
-1.81182e-07
5.86758e-07
1.07869e-07
3.74608e-07
2.12151e-07
1.54441e-07
2.20167e-07
1.54441e-07
1.34023e-07
-2.07637e-07
2.91083e-07
-2.71089e-07
3.9452e-07
-1.94802e-07
4.31463e-07
-7.76439e-08
4.14838e-07
1.43842e-08
3.56417e-07
7.01401e-08
2.68462e-07
9.71387e-08
1.36709e-07
1.39469e-07
-7.2444e-08
2.30946e-07
-4.0044e-07
3.74904e-07
-8.7854e-07
5.61618e-07
-1.48172e-06
7.6727e-07
-2.1409e-06
9.23844e-07
-2.75084e-06
1.00332e-06
-3.24206e-06
9.93634e-07
-3.64805e-06
9.29399e-07
-3.99386e-06
8.33489e-07
-4.28248e-06
7.16621e-07
-4.51555e-06
5.93046e-07
-4.69339e-06
4.6993e-07
-4.81608e-06
3.4748e-07
-4.88749e-06
2.31114e-07
-4.90722e-06
1.13779e-07
-4.86914e-06
-9.6283e-09
-4.78326e-06
-1.30024e-07
-4.6354e-06
-2.61298e-07
-4.42475e-06
-4.04959e-07
-4.14208e-06
-5.60604e-07
-3.77783e-06
-7.3259e-07
-3.32629e-06
-9.10207e-07
-2.79133e-06
-1.08212e-06
-2.17991e-06
-1.22852e-06
-1.51418e-06
-1.30101e-06
-8.34311e-07
-1.26055e-06
-2.4385e-07
-1.04845e-06
1.97762e-07
-6.22794e-07
3.4308e-07
-3.74485e-08
2.82359e-07
2.72872e-07
1.29556e-07
3.72969e-07
2.83997e-07
1.64731e-07
-3.72368e-07
2.86497e-07
-3.92856e-07
3.33552e-07
-2.41857e-07
3.13817e-07
-5.79096e-08
2.34493e-07
9.37084e-08
9.29572e-08
2.11676e-07
-1.41953e-07
3.32049e-07
-5.01256e-07
4.98772e-07
-9.98287e-07
7.27976e-07
-1.61113e-06
9.87743e-07
-2.26614e-06
1.21663e-06
-2.86345e-06
1.36458e-06
-3.3701e-06
1.43049e-06
-3.7801e-06
1.41332e-06
-4.11284e-06
1.32637e-06
-4.3827e-06
1.19926e-06
-4.59972e-06
1.05051e-06
-4.77336e-06
8.90268e-07
-4.90953e-06
7.29214e-07
-5.01038e-06
5.70778e-07
-5.07944e-06
4.16542e-07
-5.11287e-06
2.6454e-07
-5.10862e-06
1.09534e-07
-5.06976e-06
-4.84894e-08
-4.99178e-06
-2.08e-07
-4.87423e-06
-3.78851e-07
-4.71382e-06
-5.65369e-07
-4.50505e-06
-7.69371e-07
-4.24299e-06
-9.9465e-07
-3.91477e-06
-1.23843e-06
-3.50628e-06
-1.49061e-06
-3.00841e-06
-1.72639e-06
-2.42006e-06
-1.88936e-06
-1.7636e-06
-1.917e-06
-1.08783e-06
-1.72423e-06
-4.67508e-07
-1.24311e-06
-6.61227e-08
-4.38834e-07
4.07796e-08
1.6597e-07
2.8876e-08
3.84873e-07
3.12874e-07
1.39342e-07
-5.1171e-07
1.86837e-07
-4.40351e-07
1.48391e-07
-2.03411e-07
4.15976e-08
4.88837e-08
-1.41658e-07
2.76964e-07
-4.26978e-07
4.96995e-07
-8.37553e-07
7.42624e-07
-1.36993e-06
1.03115e-06
-1.98013e-06
1.33818e-06
-2.59548e-06
1.60309e-06
-3.14063e-06
1.76178e-06
-3.58433e-06
1.80828e-06
-3.92795e-06
1.77412e-06
-4.19111e-06
1.67648e-06
-4.399e-06
1.53426e-06
-4.5636e-06
1.36386e-06
-4.69552e-06
1.18243e-06
-4.80445e-06
9.99193e-07
-4.89261e-06
8.17383e-07
-4.95606e-06
6.34221e-07
-4.99555e-06
4.56035e-07
-5.00859e-06
2.77582e-07
-4.99738e-06
9.83249e-08
-4.96304e-06
-8.28373e-08
-4.90354e-06
-2.67491e-07
-4.81626e-06
-4.66133e-07
-4.69931e-06
-6.82327e-07
-4.54867e-06
-9.20006e-07
-4.3623e-06
-1.18102e-06
-4.13545e-06
-1.46528e-06
-3.86286e-06
-1.7632e-06
-3.52967e-06
-2.05958e-06
-3.0969e-06
-2.32213e-06
-2.54083e-06
-2.47307e-06
-1.86805e-06
-2.39701e-06
-1.12632e-06
-1.98484e-06
-4.26366e-07
-1.13879e-06
-1.08781e-07
-1.51615e-07
-1.52165e-08
2.91308e-07
2.97657e-07
6.68559e-08
-5.78566e-07
1.62541e-08
-3.89749e-07
-1.16347e-07
-7.08091e-08
-3.22067e-07
2.54603e-07
-6.20431e-07
5.75329e-07
-1.02891e-06
9.05471e-07
-1.54296e-06
1.25668e-06
-2.12178e-06
1.60996e-06
-2.69482e-06
1.91122e-06
-3.18651e-06
2.09478e-06
-3.57132e-06
2.14659e-06
-3.86821e-06
2.10517e-06
-4.09196e-06
1.99787e-06
-4.26047e-06
1.84499e-06
-4.39134e-06
1.66513e-06
-4.49707e-06
1.46959e-06
-4.57961e-06
1.26497e-06
-4.63765e-06
1.05723e-06
-4.67128e-06
8.51007e-07
-4.68694e-06
6.49883e-07
-4.68738e-06
4.56474e-07
-4.67544e-06
2.65645e-07
-4.65251e-06
7.53975e-08
-4.61829e-06
-1.17065e-07
-4.56979e-06
-3.15987e-07
-4.50757e-06
-5.28354e-07
-4.43099e-06
-7.58908e-07
-4.3382e-06
-1.01279e-06
-4.22535e-06
-1.29388e-06
-4.08698e-06
-1.60365e-06
-3.91349e-06
-1.93669e-06
-3.69636e-06
-2.27671e-06
-3.41827e-06
-2.60023e-06
-3.03972e-06
-2.85162e-06
-2.49607e-06
-2.94066e-06
-1.77176e-06
-2.70915e-06
-8.86002e-07
-2.02455e-06
-2.04783e-07
-8.32834e-07
-7.96538e-09
9.44898e-08
2.89692e-07
-4.202e-08
-5.36546e-07
-1.91209e-07
-2.4056e-07
-4.12667e-07
1.50649e-07
-7.11401e-07
5.53337e-07
-1.10207e-06
9.66002e-07
-1.58034e-06
1.38374e-06
-2.11382e-06
1.79015e-06
-2.64349e-06
2.13964e-06
-3.09906e-06
2.36679e-06
-3.44686e-06
2.44258e-06
-3.70687e-06
2.4066e-06
-3.90054e-06
2.29884e-06
-4.0418e-06
2.13913e-06
-4.14382e-06
1.94701e-06
-4.21235e-06
1.73366e-06
-4.25296e-06
1.5102e-06
-4.27206e-06
1.28408e-06
-4.27635e-06
1.06152e-06
-4.27177e-06
8.46433e-07
-4.26045e-06
6.38562e-07
-4.24109e-06
4.37113e-07
-4.21503e-06
2.39582e-07
-4.18302e-06
4.3393e-08
-4.14517e-06
-1.54922e-07
-4.10135e-06
-3.59801e-07
-4.05301e-06
-5.76692e-07
-4.00098e-06
-8.1094e-07
-3.94551e-06
-1.06827e-06
-3.88555e-06
-1.35384e-06
-3.81806e-06
-1.67114e-06
-3.7354e-06
-2.01935e-06
-3.62215e-06
-2.38996e-06
-3.46108e-06
-2.7613e-06
-3.22404e-06
-3.08865e-06
-2.85878e-06
-3.30592e-06
-2.28091e-06
-3.28702e-06
-1.44494e-06
-2.86051e-06
-4.75711e-07
-1.80206e-06
-3.18128e-08
-3.49409e-07
2.57879e-07
-1.48882e-07
-3.87664e-07
-3.95452e-07
6.01025e-09
-6.93383e-07
4.48579e-07
-1.06437e-06
9.24319e-07
-1.50667e-06
1.4083e-06
-1.99604e-06
1.87312e-06
-2.48679e-06
2.2809e-06
-2.91653e-06
2.56938e-06
-3.24238e-06
2.69264e-06
-3.47662e-06
2.67682e-06
-3.64495e-06
2.57492e-06
-3.75999e-06
2.41389e-06
-3.83311e-06
2.21224e-06
-3.87269e-06
1.98659e-06
-3.88761e-06
1.74858e-06
-3.88545e-06
1.50803e-06
-3.87237e-06
1.271e-06
-3.85254e-06
1.04169e-06
-3.82759e-06
8.21475e-07
-3.79844e-06
6.09415e-07
-3.76561e-06
4.04279e-07
-3.72965e-06
2.03623e-07
-3.69117e-06
4.91458e-09
-3.65058e-06
-1.95508e-07
-3.60885e-06
-4.01538e-07
-3.56748e-06
-6.18058e-07
-3.52809e-06
-8.50334e-07
-3.49216e-06
-1.10419e-06
-3.4605e-06
-1.3855e-06
-3.43227e-06
-1.69937e-06
-3.40321e-06
-2.04841e-06
-3.36351e-06
-2.42967e-06
-3.2953e-06
-2.82951e-06
-3.16698e-06
-3.21697e-06
-2.93866e-06
-3.53424e-06
-2.54224e-06
-3.68344e-06
-1.89586e-06
-3.5069e-06
-9.07116e-07
-2.7908e-06
-1.12594e-07
-1.14393e-06
1.45285e-07
-2.44614e-07
-1.4305e-07
-5.58111e-07
3.19507e-07
-9.20905e-07
8.11373e-07
-1.33497e-06
1.33839e-06
-1.78729e-06
1.86062e-06
-2.24615e-06
2.33198e-06
-2.66016e-06
2.6949e-06
-2.9794e-06
2.88863e-06
-3.20123e-06
2.91447e-06
-3.35375e-06
2.82934e-06
-3.45305e-06
2.67422e-06
-3.50895e-06
2.46979e-06
-3.53192e-06
2.23521e-06
-3.53119e-06
1.98586e-06
-3.51491e-06
1.7323e-06
-3.48921e-06
1.48233e-06
-3.45838e-06
1.24016e-06
-3.42462e-06
1.00793e-06
-3.38872e-06
7.85584e-07
-3.35124e-06
5.71929e-07
-3.31242e-06
3.6546e-07
-3.27251e-06
1.63716e-07
-3.23172e-06
-3.58737e-08
-3.19059e-06
-2.3664e-07
-3.15016e-06
-4.41974e-07
-3.11207e-06
-6.56143e-07
-3.07846e-06
-8.83948e-07
-3.05169e-06
-1.13096e-06
-3.03383e-06
-1.40337e-06
-3.02563e-06
-1.70756e-06
-3.02514e-06
-2.0489e-06
-3.02563e-06
-2.42918e-06
-3.0126e-06
-2.84254e-06
-2.95989e-06
-3.26968e-06
-2.82738e-06
-3.66675e-06
-2.56187e-06
-3.94895e-06
-2.09844e-06
-3.97033e-06
-1.33725e-06
-3.55199e-06
-3.17824e-07
-2.16336e-06
-1.72539e-07
-3.0814e-07
1.6509e-07
-6.78602e-07
6.89969e-07
-1.07761e-06
1.21038e-06
-1.50299e-06
1.76376e-06
-1.93605e-06
2.29369e-06
-2.34123e-06
2.73715e-06
-2.66627e-06
3.01995e-06
-2.89181e-06
3.11417e-06
-3.0407e-06
3.06335e-06
-3.13453e-06
2.92317e-06
-3.18412e-06
2.72381e-06
-3.19962e-06
2.48529e-06
-3.19137e-06
2.22696e-06
-3.16776e-06
1.96226e-06
-3.1354e-06
1.69994e-06
-3.09868e-06
1.44561e-06
-3.06025e-06
1.20174e-06
-3.02135e-06
9.69028e-07
-2.98246e-06
7.46691e-07
-2.94366e-06
5.33135e-07
-2.9047e-06
3.26495e-07
-2.86536e-06
1.24378e-07
-2.82536e-06
-7.58743e-08
-2.78509e-06
-2.76908e-07
-2.7454e-06
-4.81665e-07
-2.70786e-06
-6.93678e-07
-2.67481e-06
-9.17003e-07
-2.64914e-06
-1.15663e-06
-2.6339e-06
-1.4186e-06
-2.63147e-06
-1.71e-06
-2.64215e-06
-2.03821e-06
-2.66214e-06
-2.40919e-06
-2.68066e-06
-2.82402e-06
-2.67644e-06
-3.2739e-06
-2.61323e-06
-3.72996e-06
-2.44005e-06
-4.12213e-06
-2.12092e-06
-4.28945e-06
-1.57586e-06
-4.09706e-06
-5.87791e-07
-3.15143e-06
-7.6033e-07
-3.47856e-07
5.12946e-07
-7.4757e-07
1.08968e-06
-1.15718e-06
1.61999e-06
-1.56985e-06
2.17643e-06
-1.96565e-06
2.6895e-06
-2.30591e-06
3.07742e-06
-2.54904e-06
3.26308e-06
-2.70863e-06
3.27376e-06
-2.80721e-06
3.16193e-06
-2.85983e-06
2.97579e-06
-2.87647e-06
2.74044e-06
-2.86772e-06
2.47655e-06
-2.84288e-06
2.20212e-06
-2.8088e-06
1.92818e-06
-2.77047e-06
1.66162e-06
-2.731e-06
1.40613e-06
-2.69215e-06
1.16289e-06
-2.65459e-06
9.31467e-07
-2.61832e-06
7.1042e-07
-2.58288e-06
4.97695e-07
-2.54751e-06
2.9113e-07
-2.5116e-06
8.84642e-08
-2.47461e-06
-1.12859e-07
-2.43658e-06
-3.14941e-07
-2.3981e-06
-5.20148e-07
-2.36047e-06
-7.31303e-07
-2.32586e-06
-9.5162e-07
-2.29721e-06
-1.18528e-06
-2.27805e-06
-1.43777e-06
-2.27179e-06
-1.71625e-06
-2.28054e-06
-2.02947e-06
-2.3031e-06
-2.38663e-06
-2.33244e-06
-2.79468e-06
-2.35283e-06
-3.25351e-06
-2.33447e-06
-3.74833e-06
-2.22796e-06
-4.22864e-06
-1.98789e-06
-4.52952e-06
-1.56591e-06
-4.51904e-06
-8.36841e-07
-3.8805e-06
-1.59717e-06
-3.61892e-07
8.74838e-07
-7.66185e-07
1.49398e-06
-1.16601e-06
2.01981e-06
-1.5514e-06
2.56182e-06
-1.90381e-06
3.04191e-06
-2.17476e-06
3.34837e-06
-2.35519e-06
3.4435e-06
-2.46946e-06
3.38803e-06
-2.5332e-06
3.22567e-06
-2.55874e-06
3.00133e-06
-2.55603e-06
2.73773e-06
-2.53511e-06
2.45563e-06
-2.50365e-06
2.17066e-06
-2.46716e-06
1.89168e-06
-2.42944e-06
1.62389e-06
-2.39273e-06
1.36942e-06
-2.35811e-06
1.12827e-06
-2.3257e-06
8.99058e-07
-2.29499e-06
6.79705e-07
-2.26509e-06
4.67796e-07
-2.235e-06
2.61038e-07
-2.20385e-06
5.73152e-08
-2.17103e-06
-1.45674e-07
-2.13629e-06
-3.49689e-07
-2.09992e-06
-5.56511e-07
-2.06291e-06
-7.68317e-07
-2.02699e-06
-9.87535e-07
-1.99482e-06
-1.21745e-06
-1.96988e-06
-1.4627e-06
-1.95611e-06
-1.73002e-06
-1.95687e-06
-2.0287e-06
-1.97316e-06
-2.37035e-06
-2.0011e-06
-2.76673e-06
-2.02954e-06
-3.22507e-06
-2.03614e-06
-3.74173e-06
-1.97697e-06
-4.2878e-06
-1.7802e-06
-4.72629e-06
-1.44391e-06
-4.85532e-06
-8.82431e-07
-4.44198e-06
-2.4796e-06
-3.54342e-07
1.22918e-06
-7.44749e-07
1.88438e-06
-1.12066e-06
2.39572e-06
-1.46986e-06
2.91102e-06
-1.76957e-06
3.34162e-06
-1.97767e-06
3.55647e-06
-2.11766e-06
3.58349e-06
-2.20069e-06
3.47106e-06
-2.24133e-06
3.26631e-06
-2.25073e-06
3.01073e-06
-2.23852e-06
2.72553e-06
-2.21347e-06
2.43058e-06
-2.18181e-06
2.139e-06
-2.14796e-06
1.85783e-06
-2.11481e-06
1.59074e-06
-2.08389e-06
1.33851e-06
-2.05566e-06
1.10004e-06
-2.02978e-06
8.73175e-07
-2.0054e-06
6.55322e-07
-1.98145e-06
4.43853e-07
-1.95687e-06
2.36459e-07
-1.93074e-06
3.11828e-08
-1.90243e-06
-1.73984e-07
-1.87156e-06
-3.80563e-07
-1.83819e-06
-5.89881e-07
-1.80294e-06
-8.03568e-07
-1.76706e-06
-1.02341e-06
-1.73264e-06
-1.25186e-06
-1.70271e-06
-1.49264e-06
-1.68112e-06
-1.75161e-06
-1.67197e-06
-2.03786e-06
-1.67799e-06
-2.36432e-06
-1.69799e-06
-2.74673e-06
-1.72403e-06
-3.19904e-06
-1.73934e-06
-3.72642e-06
-1.71271e-06
-4.31444e-06
-1.56297e-06
-4.87603e-06
-1.28439e-06
-5.1339e-06
-7.88956e-07
-4.93741e-06
-3.26856e-06
-3.28648e-07
1.55783e-06
-6.90918e-07
2.24665e-06
-1.03248e-06
2.73728e-06
-1.3414e-06
3.21995e-06
-1.58555e-06
3.58576e-06
-1.75088e-06
3.7218e-06
-1.86002e-06
3.69264e-06
-1.92044e-06
3.53148e-06
-1.9465e-06
3.29237e-06
-1.94755e-06
3.01178e-06
-1.93236e-06
2.71034e-06
-1.90821e-06
2.40643e-06
-1.88014e-06
2.11093e-06
-1.85166e-06
1.82935e-06
-1.82489e-06
1.56397e-06
-1.80075e-06
1.31437e-06
-1.77923e-06
1.07853e-06
-1.75971e-06
8.53649e-07
-1.74121e-06
6.36824e-07
-1.72269e-06
4.25332e-07
-1.70314e-06
2.16913e-07
-1.68172e-06
9.76072e-09
-1.65784e-06
-1.97864e-07
-1.63111e-06
-4.07297e-07
-1.60142e-06
-6.19572e-07
-1.56909e-06
-8.35894e-07
-1.53494e-06
-1.05757e-06
-1.50043e-06
-1.28637e-06
-1.46791e-06
-1.52516e-06
-1.44076e-06
-1.77877e-06
-1.42313e-06
-2.05549e-06
-1.41893e-06
-2.36852e-06
-1.42939e-06
-2.73628e-06
-1.44953e-06
-3.1789e-06
-1.46622e-06
-3.70973e-06
-1.45492e-06
-4.32574e-06
-1.35142e-06
-4.97952e-06
-1.10397e-06
-5.38135e-06
-6.89414e-07
-5.35197e-06
-3.95797e-06
-2.906e-07
1.84843e-06
-6.15706e-07
2.57176e-06
-9.17773e-07
3.03935e-06
-1.18251e-06
3.48469e-06
-1.37532e-06
3.77856e-06
-1.50965e-06
3.85613e-06
-1.59464e-06
3.77762e-06
-1.64011e-06
3.57695e-06
-1.65768e-06
3.30994e-06
-1.65552e-06
3.00963e-06
-1.64129e-06
2.6961e-06
-1.62084e-06
2.38599e-06
-1.59821e-06
2.08829e-06
-1.5761e-06
1.80724e-06
-1.55599e-06
1.54386e-06
-1.53834e-06
1.29671e-06
-1.52284e-06
1.06303e-06
-1.50878e-06
8.39586e-07
-1.49523e-06
6.2328e-07
-1.48129e-06
4.11391e-07
-1.46611e-06
2.01727e-07
-1.44895e-06
-7.3982e-09
-1.4293e-06
-2.17507e-07
-1.40681e-06
-4.29787e-07
-1.38128e-06
-6.45109e-07
-1.35279e-06
-8.6438e-07
-1.3218e-06
-1.08856e-06
-1.28924e-06
-1.31893e-06
-1.25678e-06
-1.55761e-06
-1.22709e-06
-1.80846e-06
-1.20393e-06
-2.07864e-06
-1.19169e-06
-2.38075e-06
-1.19343e-06
-2.73454e-06
-1.20712e-06
-3.16521e-06
-1.22247e-06
-3.69438e-06
-1.2187e-06
-4.32951e-06
-1.1561e-06
-5.04211e-06
-9.39148e-07
-5.59831e-06
-5.85516e-07
-5.7056e-06
-4.54349e-06
-2.45714e-07
2.09414e-06
-5.2738e-07
2.85343e-06
-7.86369e-07
3.29834e-06
-1.00446e-06
3.70278e-06
-1.15598e-06
3.93008e-06
-1.26434e-06
3.9645e-06
-1.33118e-06
3.84446e-06
-1.36647e-06
3.61224e-06
-1.37953e-06
3.323e-06
-1.37727e-06
3.00738e-06
-1.36609e-06
2.68491e-06
-1.35058e-06
2.37048e-06
-1.33389e-06
2.07161e-06
-1.31804e-06
1.7914e-06
-1.30399e-06
1.52981e-06
-1.29189e-06
1.28461e-06
-1.28133e-06
1.05247e-06
-1.27165e-06
8.29908e-07
-1.26209e-06
6.13719e-07
-1.25192e-06
4.01222e-07
-1.24049e-06
1.90291e-07
-1.22719e-06
-2.06913e-08
-1.21162e-06
-2.3308e-07
-1.19344e-06
-4.47968e-07
-1.17241e-06
-6.66142e-07
-1.14846e-06
-8.8833e-07
-1.12176e-06
-1.11526e-06
-1.09284e-06
-1.34785e-06
-1.0628e-06
-1.58765e-06
-1.03358e-06
-1.83768e-06
-1.00833e-06
-2.1039e-06
-9.91327e-07
-2.39775e-06
-9.86791e-07
-2.73907e-06
-9.95336e-07
-3.15666e-06
-1.00903e-06
-3.68069e-06
-1.01014e-06
-4.3284e-06
-9.69203e-07
-5.08305e-06
-7.96659e-07
-5.77085e-06
-5.02385e-07
-5.99988e-06
-5.04587e-06
-1.95416e-07
2.28956e-06
-4.30454e-07
3.08846e-06
-6.44624e-07
3.51251e-06
-8.17495e-07
3.87565e-06
-9.37071e-07
4.04966e-06
-1.0232e-06
4.05063e-06
-1.07521e-06
3.89646e-06
-1.10311e-06
3.64014e-06
-1.11392e-06
3.33381e-06
-1.11315e-06
3.00661e-06
-1.10585e-06
2.67761e-06
-1.09549e-06
2.36012e-06
-1.08444e-06
2.06055e-06
-1.07412e-06
1.78108e-06
-1.06514e-06
1.52083e-06
-1.05747e-06
1.27694e-06
-1.05076e-06
1.04576e-06
-1.04448e-06
8.23625e-07
-1.03807e-06
6.0731e-07
-1.03101e-06
3.94169e-07
-1.02285e-06
1.82126e-07
-1.01313e-06
-3.04086e-08
-1.00151e-06
-2.447e-07
-9.87699e-07
-4.61778e-07
-9.7144e-07
-6.82402e-07
-9.52558e-07
-9.07212e-07
-9.31026e-07
-1.13679e-06
-9.07064e-07
-1.37181e-06
-8.81324e-07
-1.61339e-06
-8.5518e-07
-1.86382e-06
-8.31126e-07
-2.12795e-06
-8.13072e-07
-2.41581e-06
-8.05768e-07
-2.74638e-06
-8.11912e-07
-3.15052e-06
-8.2654e-07
-3.66606e-06
-8.35146e-07
-4.3198e-06
-8.13245e-07
-5.10495e-06
-6.78189e-07
-5.90591e-06
-4.22703e-07
-6.25536e-06
-5.46858e-06
-1.44335e-07
2.43389e-06
-3.29983e-07
3.27411e-06
-4.99969e-07
3.68249e-06
-6.31612e-07
4.0073e-06
-7.23368e-07
4.14141e-06
-7.88722e-07
4.11598e-06
-8.28792e-07
3.93653e-06
-8.51144e-07
3.66249e-06
-8.60878e-07
3.34355e-06
-8.62186e-07
3.00792e-06
-8.58788e-07
2.67421e-06
-8.53178e-07
2.35451e-06
-8.47026e-07
2.0544e-06
-8.41283e-07
1.77534e-06
-8.36298e-07
1.51584e-06
-8.32027e-07
1.27267e-06
-8.28214e-07
1.04195e-06
-8.24525e-07
8.19936e-07
-8.20621e-07
6.03406e-07
-8.16189e-07
3.89737e-07
-8.1094e-07
1.76877e-07
-8.04581e-07
-3.67676e-08
-7.96839e-07
-2.52443e-07
-7.87464e-07
-4.71152e-07
-7.76199e-07
-6.93667e-07
-7.62803e-07
-9.20608e-07
-7.47108e-07
-1.15248e-06
-7.29105e-07
-1.38981e-06
-7.09109e-07
-1.63339e-06
-6.88025e-07
-1.88491e-06
-6.67769e-07
-2.14821e-06
-6.51742e-07
-2.43183e-06
-6.44808e-07
-2.75331e-06
-6.51167e-07
-3.14416e-06
-6.68759e-07
-3.64847e-06
-6.84924e-07
-4.30363e-06
-6.74568e-07
-5.11531e-06
-5.82279e-07
-5.99819e-06
-3.69368e-07
-6.46827e-06
-5.83794e-06
-9.04202e-08
2.52431e-06
-2.28683e-07
3.41237e-06
-3.56049e-07
3.80986e-06
-4.49696e-07
4.10095e-06
-5.16209e-07
4.20793e-06
-5.62842e-07
4.16261e-06
-5.92503e-07
3.96619e-06
-6.10238e-07
3.68023e-06
-6.1932e-07
3.35263e-06
-6.22647e-07
3.01125e-06
-6.22722e-07
2.67428e-06
-6.21161e-07
2.35295e-06
-6.19025e-07
2.05227e-06
-6.16887e-07
1.7732e-06
-6.14951e-07
1.51391e-06
-6.13207e-07
1.27093e-06
-6.1155e-07
1.04029e-06
-6.09848e-07
8.18234e-07
-6.07973e-07
6.01531e-07
-6.05803e-07
3.87567e-07
-6.03212e-07
1.74285e-07
-6.00048e-07
-3.99317e-08
-5.96125e-07
-2.56365e-07
-5.91237e-07
-4.7604e-07
-5.85137e-07
-6.99767e-07
-5.77556e-07
-9.28189e-07
-5.68231e-07
-1.16181e-06
-5.56988e-07
-1.40106e-06
-5.43886e-07
-1.64649e-06
-5.29464e-07
-1.89933e-06
-5.15141e-07
-2.16253e-06
-5.03758e-07
-2.44322e-06
-4.99953e-07
-2.75712e-06
-5.08959e-07
-3.13515e-06
-5.31532e-07
-3.6259e-06
-5.57064e-07
-4.2781e-06
-5.60487e-07
-5.11188e-06
-4.98655e-07
-6.06003e-06
-3.20232e-07
-6.6467e-06
-6.15818e-06
-4.11734e-08
2.56549e-06
-1.29955e-07
3.50116e-06
-2.14673e-07
3.89458e-06
-2.73803e-07
4.16008e-06
-3.17029e-07
4.25115e-06
-3.46115e-07
4.1917e-06
-3.65999e-07
3.98608e-06
-3.7931e-07
3.69354e-06
-3.87603e-07
3.36092e-06
-3.925e-07
3.01614e-06
-3.95375e-07
2.67716e-06
-3.97055e-07
2.35463e-06
-3.98065e-07
2.05328e-06
-3.98681e-07
1.77382e-06
-3.99018e-07
1.51424e-06
-3.99136e-07
1.27104e-06
-3.99087e-07
1.04024e-06
-3.98936e-07
8.18083e-07
-3.9875e-07
6.01345e-07
-3.98584e-07
3.87401e-07
-3.98463e-07
1.74164e-07
-3.98364e-07
-4.00302e-08
-3.98202e-07
-2.56527e-07
-3.97822e-07
-4.76419e-07
-3.9701e-07
-7.00579e-07
-3.95491e-07
-9.29709e-07
-3.92947e-07
-1.16435e-06
-3.89091e-07
-1.40491e-06
-3.83793e-07
-1.65179e-06
-3.77307e-07
-1.90581e-06
-3.70644e-07
-2.1692e-06
-3.66131e-07
-2.44773e-06
-3.67996e-07
-2.75525e-06
-3.81935e-07
-3.12122e-06
-4.10889e-07
-3.59694e-06
-4.46351e-07
-4.24264e-06
-4.6598e-07
-5.09226e-06
-4.31878e-07
-6.09413e-06
-2.85302e-07
-6.79327e-06
-6.44348e-06
1.30791e-08
2.55241e-06
-3.10046e-08
3.54524e-06
-7.6772e-08
3.94034e-06
-1.05442e-07
4.18875e-06
-1.25702e-07
4.27141e-06
-1.38328e-07
4.20432e-06
-1.48477e-07
3.99623e-06
-1.56921e-07
3.70198e-06
-1.63871e-07
3.36787e-06
-1.69639e-07
3.02191e-06
-1.74523e-07
2.68204e-06
-1.78629e-07
2.35873e-06
-1.82005e-07
2.05665e-06
-1.84675e-07
1.77649e-06
-1.86693e-07
1.51626e-06
-1.88191e-07
1.27254e-06
-1.89372e-07
1.04142e-06
-1.90476e-07
8.19188e-07
-1.91751e-07
6.02619e-07
-1.93411e-07
3.89062e-07
-1.95622e-07
1.76375e-07
-1.98484e-07
-3.71681e-08
-2.02018e-07
-2.52994e-07
-2.06135e-07
-4.72302e-07
-2.10676e-07
-6.96038e-07
-2.15386e-07
-9.24999e-07
-2.19931e-07
-1.15981e-06
-2.2395e-07
-1.40089e-06
-2.27175e-07
-1.64857e-06
-2.29634e-07
-1.90335e-06
-2.31996e-07
-2.16683e-06
-2.36129e-07
-2.4436e-06
-2.4581e-07
-2.74557e-06
-2.66819e-07
-3.10021e-06
-3.03687e-07
-3.56007e-06
-3.50212e-07
-4.19611e-06
-3.85748e-07
-5.05672e-06
-3.74675e-07
-6.1052e-06
-2.54014e-07
-6.91393e-06
-6.69749e-06
6.16783e-08
2.49073e-06
6.43471e-08
3.54257e-06
5.59344e-08
3.94876e-06
5.58161e-08
4.18886e-06
5.87112e-08
4.26852e-06
6.20976e-08
4.20094e-06
6.15878e-08
3.99673e-06
5.8569e-08
3.705e-06
5.3734e-08
3.37271e-06
4.79573e-08
3.02769e-06
4.19208e-08
2.68808e-06
3.61894e-08
2.36446e-06
3.11431e-08
2.0617e-06
2.69869e-08
1.78064e-06
2.37252e-08
1.51952e-06
2.11716e-08
1.27509e-06
1.90015e-08
1.04359e-06
1.68203e-08
8.21369e-07
1.42256e-08
6.05214e-07
1.08525e-08
3.92435e-07
6.40313e-09
1.80825e-07
6.62642e-10
-3.14276e-08
-6.49043e-09
-2.45841e-07
-1.50842e-08
-4.63708e-07
-2.49982e-08
-6.86124e-07
-3.60311e-08
-9.13966e-07
-4.78679e-08
-1.14797e-06
-6.01231e-08
-1.38864e-06
-7.2442e-08
-1.63625e-06
-8.46733e-08
-1.89112e-06
-9.71834e-08
-2.15432e-06
-1.1141e-07
-2.42937e-06
-1.30643e-07
-2.72634e-06
-1.60484e-07
-3.07037e-06
-2.06558e-07
-3.514e-06
-2.65225e-07
-4.13745e-06
-3.17267e-07
-5.00468e-06
-3.29218e-07
-6.09325e-06
-2.30937e-07
-7.01221e-06
-6.92843e-06
1.10529e-07
2.3802e-06
1.57135e-07
3.49597e-06
1.84252e-07
3.92164e-06
2.12177e-07
4.16094e-06
2.38107e-07
4.24259e-06
2.57707e-07
4.18134e-06
2.66287e-07
3.98816e-06
2.68967e-07
3.70232e-06
2.67001e-07
3.37467e-06
2.62125e-07
3.03256e-06
2.55819e-07
2.69438e-06
2.49234e-07
2.37105e-06
2.43155e-07
2.06778e-06
2.38001e-07
1.7858e-06
2.33846e-07
1.52368e-06
2.30477e-07
1.27846e-06
2.27478e-07
1.04659e-06
2.24331e-07
8.24516e-07
2.20497e-07
6.09047e-07
2.15478e-07
3.97454e-07
2.08849e-07
1.87454e-07
2.00277e-07
-2.2856e-08
1.89534e-07
-2.35097e-07
1.76522e-07
-4.50696e-07
1.61252e-07
-6.70854e-07
1.43858e-07
-8.96572e-07
1.24601e-07
-1.12871e-06
1.03846e-07
-1.36788e-06
8.199e-08
-1.61439e-06
5.93105e-08
-1.86844e-06
3.57018e-08
-2.13072e-06
1.01456e-08
-2.40381e-06
-2.01719e-08
-2.69602e-06
-6.05011e-08
-3.03004e-06
-1.1708e-07
-3.45742e-06
-1.88448e-07
-4.06608e-06
-2.56223e-07
-4.9369e-06
-2.89562e-07
-6.05991e-06
-2.10732e-07
-7.09105e-06
-7.13916e-06
1.58379e-07
2.22182e-06
2.47458e-07
3.40689e-06
3.07588e-07
3.86151e-06
3.61182e-07
4.10734e-06
4.08904e-07
4.19487e-06
4.45686e-07
4.14456e-06
4.65268e-07
3.96857e-06
4.74988e-07
3.6926e-06
4.77178e-07
3.37248e-06
4.744e-07
3.03534e-06
4.68872e-07
2.69991e-06
4.62302e-07
2.37762e-06
4.55848e-07
2.07423e-06
4.50158e-07
1.79149e-06
4.45414e-07
1.52842e-06
4.41416e-07
1.28246e-06
4.37698e-07
1.05031e-06
4.33649e-07
8.28566e-07
4.28617e-07
6.14079e-07
4.21985e-07
4.04086e-07
4.13212e-07
1.96227e-07
4.01851e-07
-1.14948e-08
3.87574e-07
-2.20821e-07
3.70174e-07
-4.33295e-07
3.49568e-07
-6.50248e-07
3.25795e-07
-8.72799e-07
2.99019e-07
-1.10194e-06
2.69547e-07
-1.33841e-06
2.37768e-07
-1.58261e-06
2.04038e-07
-1.83471e-06
1.68471e-07
-2.09515e-06
1.30471e-07
-2.36581e-06
8.77741e-08
-2.65332e-06
3.54843e-08
-2.97775e-06
-3.30534e-08
-3.38888e-06
-1.18199e-07
-3.98093e-06
-2.01962e-07
-4.85314e-06
-2.53705e-07
-6.00817e-06
-1.96831e-07
-7.14792e-06
-7.33599e-06
2.0371e-07
2.01811e-06
3.3433e-07
3.27627e-06
4.26274e-07
3.76957e-06
5.05428e-07
4.02819e-06
5.72104e-07
4.12819e-06
6.25451e-07
4.09121e-06
6.58579e-07
3.93545e-06
6.77106e-07
3.67408e-06
6.85036e-07
3.36455e-06
6.85828e-07
3.03455e-06
6.82359e-07
2.70338e-06
6.76845e-07
2.38313e-06
6.70815e-07
2.08026e-06
6.65162e-07
1.79714e-06
6.60207e-07
1.53338e-06
6.55807e-07
1.28686e-06
6.51489e-07
1.05463e-06
6.46591e-07
8.33464e-07
6.40383e-07
6.20287e-07
6.32152e-07
4.12317e-07
6.21249e-07
2.0713e-07
6.07125e-07
2.62915e-09
5.89347e-07
-2.03043e-07
5.67599e-07
-4.11548e-07
5.41674e-07
-6.24322e-07
5.11493e-07
-8.42618e-07
4.77113e-07
-1.06756e-06
4.38742e-07
-1.30004e-06
3.96701e-07
-1.54057e-06
3.51375e-07
-1.78939e-06
3.03057e-07
-2.04683e-06
2.51534e-07
-2.31429e-06
1.9515e-07
-2.59694e-06
1.29477e-07
-2.91207e-06
4.76169e-08
-3.30702e-06
-5.23556e-08
-3.88096e-06
-1.52938e-07
-4.75256e-06
-2.20306e-07
-5.9408e-06
-1.86118e-07
-7.18211e-06
-7.52211e-06
2.45762e-07
1.77235e-06
4.16125e-07
3.1059e-06
5.38133e-07
3.64756e-06
6.40632e-07
3.92569e-06
7.27498e-07
4.04132e-06
7.98568e-07
4.02014e-06
8.46674e-07
3.88734e-06
8.756e-07
3.64515e-06
8.91005e-07
3.34915e-06
8.97082e-07
3.02848e-06
8.9723e-07
2.70323e-06
8.94087e-07
2.38628e-06
8.89518e-07
2.08483e-06
8.84662e-07
1.802e-06
8.80016e-07
1.53802e-06
8.75543e-07
1.29134e-06
8.70815e-07
1.05936e-06
8.65169e-07
8.3911e-07
8.57831e-07
6.27625e-07
8.48017e-07
4.22132e-07
8.34992e-07
2.20155e-07
8.18109e-07
1.9512e-08
7.96838e-07
-1.81771e-07
7.70753e-07
-3.85463e-07
7.395e-07
-5.93069e-07
7.02858e-07
-8.05976e-07
6.60756e-07
-1.02546e-06
6.13261e-07
-1.25254e-06
5.60599e-07
-1.48791e-06
5.03141e-07
-1.73193e-06
4.41291e-07
-1.98498e-06
3.75181e-07
-2.24818e-06
3.03788e-07
-2.52554e-06
2.23341e-07
-2.83163e-06
1.26702e-07
-3.21038e-06
1.01457e-08
-3.7644e-06
-1.08535e-07
-4.63388e-06
-1.92754e-07
-5.85658e-06
-1.76372e-07
-7.19849e-06
-7.69848e-06
2.82185e-07
1.49016e-06
4.9017e-07
2.89792e-06
6.41346e-07
3.49638e-06
7.6645e-07
3.80059e-06
8.73574e-07
3.9342e-06
9.61222e-07
3.93249e-06
1.02678e-06
3.82178e-06
1.06902e-06
3.60291e-06
1.09446e-06
3.32371e-06
1.1081e-06
3.01485e-06
1.11386e-06
2.69747e-06
1.11479e-06
2.38534e-06
1.11307e-06
2.08656e-06
1.11008e-06
1.80498e-06
1.10653e-06
1.54158e-06
1.10252e-06
1.29534e-06
1.09773e-06
1.06414e-06
1.09155e-06
8.45295e-07
1.08319e-06
6.3598e-07
1.07185e-06
4.33477e-07
1.05671e-06
2.35289e-07
1.03705e-06
3.91706e-08
1.01226e-06
-1.56972e-07
9.81779e-07
-3.54987e-07
9.4512e-07
-5.5641e-07
9.01905e-07
-7.62762e-07
8.51904e-07
-9.75453e-07
7.94996e-07
-1.19564e-06
7.31256e-07
-1.42417e-06
6.61003e-07
-1.66168e-06
5.84774e-07
-1.90875e-06
5.03058e-07
-2.16647e-06
4.15408e-07
-2.43789e-06
3.18804e-07
-2.73502e-06
2.06321e-07
-3.0979e-06
7.29271e-08
-3.63101e-06
-6.51816e-08
-4.49577e-06
-1.66878e-07
-5.75488e-06
-1.67049e-07
-7.19832e-06
-7.86553e-06
3.09483e-07
1.18068e-06
5.51902e-07
2.6555e-06
7.31773e-07
3.31651e-06
8.79465e-07
3.6529e-06
1.00647e-06
3.80719e-06
1.11248e-06
3.82649e-06
1.19675e-06
3.73751e-06
1.25516e-06
3.5445e-06
1.29374e-06
3.28512e-06
1.31786e-06
2.99072e-06
1.33186e-06
2.68347e-06
1.33911e-06
2.37809e-06
1.34211e-06
2.08356e-06
1.34249e-06
1.8046e-06
1.34118e-06
1.54289e-06
1.33848e-06
1.29804e-06
1.33423e-06
1.0684e-06
1.32789e-06
8.5163e-07
1.31876e-06
6.45115e-07
1.30601e-06
4.46225e-07
1.28881e-06
2.52485e-07
1.26637e-06
6.16176e-08
1.23798e-06
-1.28588e-07
1.203e-06
-3.20001e-07
1.16076e-06
-5.14172e-07
1.11075e-06
-7.12752e-07
1.05256e-06
-9.17262e-07
9.85862e-07
-1.12894e-06
9.10562e-07
-1.34887e-06
8.26886e-07
-1.578e-06
7.35414e-07
-1.81728e-06
6.36954e-07
-2.06801e-06
5.31695e-07
-2.33263e-06
4.17323e-07
-2.62065e-06
2.8757e-07
-2.96815e-06
1.36825e-07
-3.48026e-06
-1.80246e-08
-4.34092e-06
-1.36934e-07
-5.63598e-06
-1.61584e-07
-7.17367e-06
-8.02711e-06
3.20358e-07
8.60321e-07
5.94735e-07
2.38112e-06
8.04945e-07
3.1063e-06
9.76111e-07
3.48173e-06
1.12281e-06
3.6605e-06
1.24864e-06
3.70065e-06
1.3527e-06
3.63345e-06
1.43057e-06
3.46663e-06
1.486e-06
3.2297e-06
1.52422e-06
2.95251e-06
1.54977e-06
2.65791e-06
1.56629e-06
2.36157e-06
1.5765e-06
2.07336e-06
1.58231e-06
1.7988e-06
1.58488e-06
1.54031e-06
1.58477e-06
1.29816e-06
1.58197e-06
1.07119e-06
1.57614e-06
8.57462e-07
1.56666e-06
6.54596e-07
1.55277e-06
4.60115e-07
1.53363e-06
2.71618e-07
1.50842e-06
8.68278e-08
1.47639e-06
-9.65531e-08
1.43673e-06
-2.80343e-07
1.38868e-06
-4.66116e-07
1.33157e-06
-6.55649e-07
1.26481e-06
-8.50502e-07
1.18787e-06
-1.052e-06
1.10044e-06
-1.26144e-06
1.00263e-06
-1.48019e-06
8.95019e-07
-1.70967e-06
7.78583e-07
-1.95157e-06
6.54104e-07
-2.20815e-06
5.20223e-07
-2.48677e-06
3.71423e-07
-2.81935e-06
2.01652e-07
-3.31049e-06
2.6035e-08
-4.1653e-06
-1.14563e-07
-5.49538e-06
-1.55046e-07
-7.13318e-06
-8.18216e-06
3.04937e-07
5.55384e-07
6.10907e-07
2.07515e-06
8.54136e-07
2.86307e-06
1.05042e-06
3.28544e-06
1.21789e-06
3.49303e-06
1.36462e-06
3.55392e-06
1.49049e-06
3.50758e-06
1.59098e-06
3.36614e-06
1.66736e-06
3.15332e-06
1.72387e-06
2.89599e-06
1.76497e-06
2.61682e-06
1.79438e-06
2.33216e-06
1.815e-06
2.05273e-06
1.82896e-06
1.78484e-06
1.83766e-06
1.5316e-06
1.8419e-06
1.29392e-06
1.84194e-06
1.07115e-06
1.83763e-06
8.61773e-07
1.82852e-06
6.63711e-07
1.81395e-06
4.74681e-07
1.79314e-06
2.92427e-07
1.76528e-06
1.1469e-07
1.72955e-06
-6.08204e-08
1.68504e-06
-2.3584e-07
1.6309e-06
-4.11972e-07
1.56633e-06
-5.91076e-07
1.49051e-06
-7.7469e-07
1.40274e-06
-9.64223e-07
1.30252e-06
-1.16122e-06
1.18981e-06
-1.36748e-06
1.06511e-06
-1.58497e-06
9.29515e-07
-1.81597e-06
7.84273e-07
-2.06291e-06
6.29077e-07
-2.33157e-06
4.59223e-07
-2.64949e-06
2.68667e-07
-3.11994e-06
7.014e-08
-3.96677e-06
-9.03733e-08
-5.33486e-06
-1.48852e-07
-7.07471e-06
-8.33101e-06
2.50552e-07
3.04833e-07
5.97952e-07
1.72775e-06
8.72882e-07
2.58814e-06
1.0957e-06
3.06262e-06
1.28601e-06
3.30272e-06
1.45497e-06
3.38496e-06
1.60473e-06
3.35781e-06
1.73094e-06
3.23994e-06
1.83266e-06
3.05159e-06
1.9123e-06
2.81636e-06
1.97358e-06
2.55553e-06
2.02017e-06
2.28558e-06
2.05505e-06
2.01785e-06
2.08052e-06
1.75937e-06
2.09822e-06
1.51391e-06
2.10919e-06
1.28295e-06
2.11396e-06
1.06638e-06
2.11262e-06
8.63107e-07
2.10495e-06
6.71382e-07
2.09045e-06
4.89181e-07
2.06844e-06
3.14442e-07
2.03818e-06
1.4495e-07
1.99877e-06
-2.14066e-08
1.94929e-06
-1.86366e-07
1.8888e-06
-3.51479e-07
1.81636e-06
-5.18634e-07
1.73097e-06
-6.89309e-07
1.63178e-06
-8.65025e-07
1.51811e-06
-1.04755e-06
1.38978e-06
-1.23915e-06
1.24716e-06
-1.44235e-06
1.09134e-06