/*--------------------------------*- C++ -*----------------------------------*\
  =========                 |
  \\      /  F ield         | OpenFOAM: The Open Source CFD Toolbox
   \\    /   O peration     | Website:  https://openfoam.org
    \\  /    A nd           | Version:  12
     \\/     M anipulation  |
\*---------------------------------------------------------------------------*/
FoamFile
{
    format      ascii;
    class       volVectorField;
    location    "4.5";
    object      U;
}
// * * * * * * * * * * * * * * * * * * * * * * * * * * * * * * * * * * * * * //

dimensions      [0 1 -1 0 0 0 0];

internalField   nonuniform List<vector> 
1600
(
(0.00100374 -0.000899183 0)
(0.00523352 -0.0014358 0)
(0.00950504 -0.00130055 0)
(0.0122941 -0.000469994 0)
(0.0130674 8.86051e-05 0)
(0.0128143 1.75121e-05 0)
(0.0123104 -0.000415971 0)
(0.0119843 -0.000829506 0)
(0.0114929 -0.000918062 0)
(0.0103461 -0.000826437 0)
(0.00818023 -0.000905473 0)
(0.00348217 -0.000439884 0)
(-0.0059211 0.000897996 0)
(-0.0167289 0.00506286 0)
(-0.0348879 0.0106464 0)
(-0.0588518 0.0123861 0)
(-0.0794688 0.0115528 0)
(-0.0981798 0.0103235 0)
(-0.113627 0.00877909 0)
(-0.126525 0.0072799 0)
(-0.136609 0.0057848 0)
(-0.144175 0.00435179 0)
(-0.149008 0.00294419 0)
(-0.151173 0.0016156 0)
(-0.151244 -0.000301292 0)
(-0.147655 -0.00190813 0)
(-0.14155 -0.0039561 0)
(-0.131477 -0.00579673 0)
(-0.118203 -0.00789423 0)
(-0.101224 -0.0100126 0)
(-0.0812398 -0.0121888 0)
(-0.0583348 -0.0136625 0)
(-0.0339217 -0.0140024 0)
(-0.00878437 -0.0127162 0)
(0.0116035 -0.0106461 0)
(0.0265499 -0.00373198 0)
(0.027667 0.00311014 0)
(0.0216245 0.00479947 0)
(0.0101293 0.00376264 0)
(0.00210181 0.00258168 0)
(0.00183883 -0.00518972 0)
(0.00901797 -0.00795992 0)
(0.0140096 -0.00617515 0)
(0.0168982 -0.00289289 0)
(0.0175036 -0.000231669 0)
(0.0159908 0.00106358 0)
(0.0129558 0.00131938 0)
(0.00864623 0.00158284 0)
(0.00211459 0.00281604 0)
(-0.00813111 0.00508896 0)
(-0.0231956 0.00899135 0)
(-0.0459161 0.0163058 0)
(-0.0731913 0.0242131 0)
(-0.0989949 0.0304521 0)
(-0.120371 0.0321725 0)
(-0.138651 0.0303357 0)
(-0.15388 0.0271859 0)
(-0.166739 0.0233222 0)
(-0.176977 0.0193449 0)
(-0.185118 0.0154127 0)
(-0.190948 0.0115725 0)
(-0.194775 0.00781431 0)
(-0.196461 0.00404858 0)
(-0.196116 0.000177847 0)
(-0.193635 -0.00406252 0)
(-0.188855 -0.00851495 0)
(-0.181623 -0.0133059 0)
(-0.171605 -0.0183927 0)
(-0.158581 -0.0237953 0)
(-0.141901 -0.029118 0)
(-0.121925 -0.0340405 0)
(-0.0993867 -0.0380947 0)
(-0.0741509 -0.0392702 0)
(-0.0478804 -0.0365611 0)
(-0.0223728 -0.0287768 0)
(4.64385e-05 -0.0134474 0)
(0.0150809 0.00355372 0)
(0.015061 0.0105549 0)
(0.00889877 0.0126582 0)
(0.00139212 0.00926588 0)
(0.00284349 -0.0117711 0)
(0.00986113 -0.0142639 0)
(0.0127195 -0.00988513 0)
(0.0134361 -0.00372113 0)
(0.0116347 0.00116806 0)
(0.00746504 0.00426718 0)
(0.000208076 0.00663631 0)
(-0.0113276 0.0104126 0)
(-0.0282331 0.0173042 0)
(-0.0512605 0.0270876 0)
(-0.0779369 0.0373951 0)
(-0.103218 0.044396 0)
(-0.125808 0.0480325 0)
(-0.144017 0.0486541 0)
(-0.158755 0.0464861 0)
(-0.170736 0.0425458 0)
(-0.180347 0.0375307 0)
(-0.188134 0.032034 0)
(-0.194213 0.0264176 0)
(-0.198901 0.0208758 0)
(-0.202274 0.0151281 0)
(-0.204291 0.0097335 0)
(-0.204879 0.00424726 0)
(-0.204021 -0.00128237 0)
(-0.201584 -0.00713627 0)
(-0.197655 -0.0133461 0)
(-0.192059 -0.0202551 0)
(-0.1846 -0.0279019 0)
(-0.175093 -0.03643 0)
(-0.163218 -0.0453202 0)
(-0.1485 -0.0540445 0)
(-0.130405 -0.0611818 0)
(-0.109047 -0.0647856 0)
(-0.0850457 -0.0632891 0)
(-0.0591206 -0.0538316 0)
(-0.0320639 -0.0344211 0)
(-0.00620697 -0.00607241 0)
(0.00189248 0.0105695 0)
(0.00205667 0.016429 0)
(-1.58406e-05 0.0126079 0)
(0.0033232 -0.0189309 0)
(0.0071917 -0.0179153 0)
(0.00719219 -0.0102227 0)
(0.00444777 -0.00132843 0)
(-0.00096271 0.00607144 0)
(-0.0100072 0.0127264 0)
(-0.0237921 0.0202531 0)
(-0.0427988 0.0299931 0)
(-0.066126 0.0415616 0)
(-0.0918309 0.0527263 0)
(-0.116183 0.0607589 0)
(-0.135784 0.0643969 0)
(-0.151333 0.0645772 0)
(-0.163117 0.0619158 0)
(-0.172492 0.057303 0)
(-0.179792 0.0515304 0)
(-0.185552 0.0450772 0)
(-0.190285 0.0380821 0)
(-0.194281 0.0309434 0)
(-0.197342 0.0239051 0)
(-0.199381 0.0172495 0)
(-0.200385 0.0105246 0)
(-0.200405 0.00380602 0)
(-0.199481 -0.00307742 0)
(-0.197591 -0.0101988 0)
(-0.194629 -0.0177751 0)
(-0.190525 -0.0259691 0)
(-0.185141 -0.0349103 0)
(-0.178312 -0.0446602 0)
(-0.169934 -0.0555236 0)
(-0.159902 -0.0670748 0)
(-0.147911 -0.0784741 0)
(-0.133363 -0.0873653 0)
(-0.114355 -0.0899726 0)
(-0.0903662 -0.0824181 0)
(-0.0621668 -0.0623502 0)
(-0.0279817 -0.0267956 0)
(-0.0065189 0.00333279 0)
(-0.00146458 0.0146885 0)
(-5.77726e-06 0.012478 0)
(0.00211033 -0.0226497 0)
(0.00249893 -0.0178667 0)
(-0.00141899 -0.00640388 0)
(-0.00786419 0.00508621 0)
(-0.0175959 0.0160261 0)
(-0.0315397 0.0272034 0)
(-0.0502046 0.0396442 0)
(-0.0726645 0.0531441 0)
(-0.0966391 0.0657936 0)
(-0.119 0.0749382 0)
(-0.136567 0.0788899 0)
(-0.149866 0.0788124 0)
(-0.160055 0.075868 0)
(-0.167579 0.0707661 0)
(-0.173421 0.0643324 0)
(-0.178015 0.0568635 0)
(-0.181844 0.0489776 0)
(-0.184715 0.0411167 0)
(-0.186512 0.0333726 0)
(-0.187353 0.025707 0)
(-0.187662 0.0181973 0)
(-0.187395 0.0107392 0)
(-0.186707 0.00330416 0)
(-0.18556 -0.00429077 0)
(-0.183901 -0.0121893 0)
(-0.181665 -0.0206229 0)
(-0.178875 -0.0297906 0)
(-0.175452 -0.03987 0)
(-0.171306 -0.0509443 0)
(-0.166267 -0.0629346 0)
(-0.160067 -0.0755573 0)
(-0.152281 -0.0881331 0)
(-0.142698 -0.100346 0)
(-0.130335 -0.109078 0)
(-0.112786 -0.109121 0)
(-0.0874244 -0.0943358 0)
(-0.0543336 -0.061831 0)
(-0.0162635 -0.0140013 0)
(-0.00168305 0.00965047 0)
(0.000826134 0.0120228 0)
(-0.000232022 -0.0232813 0)
(-0.00394827 -0.013361 0)
(-0.011398 0.000915813 0)
(-0.0214438 0.0155518 0)
(-0.0350404 0.030367 0)
(-0.0525234 0.0456896 0)
(-0.0732691 0.0613036 0)
(-0.0954209 0.0757235 0)
(-0.11612 0.0865169 0)
(-0.132326 0.0915023 0)
(-0.144095 0.0915333 0)
(-0.152976 0.08845 0)
(-0.159442 0.0830368 0)
(-0.164079 0.0761003 0)
(-0.167528 0.0681441 0)
(-0.169598 0.0597768 0)
(-0.170768 0.0511826 0)
(-0.171129 0.0425721 0)
(-0.17103 0.0341098 0)
(-0.170771 0.0258957 0)
(-0.170111 0.0179463 0)
(-0.169206 0.0101355 0)
(-0.168039 0.00238036 0)
(-0.166633 -0.00549107 0)
(-0.164981 -0.0136451 0)
(-0.163122 -0.0223167 0)
(-0.161099 -0.0317262 0)
(-0.158927 -0.0421134 0)
(-0.156597 -0.0536792 0)
(-0.154042 -0.0665208 0)
(-0.151081 -0.080487 0)
(-0.14734 -0.0950192 0)
(-0.142149 -0.108916 0)
(-0.134395 -0.120419 0)
(-0.122742 -0.127294 0)
(-0.104538 -0.122615 0)
(-0.0769896 -0.0991268 0)
(-0.0366142 -0.0507751 0)
(-0.00475948 -0.00259909 0)
(0.00155126 0.0114722 0)
(-0.00293167 -0.0188453 0)
(-0.0104891 -0.00535369 0)
(-0.02098 0.0116363 0)
(-0.0341196 0.0293469 0)
(-0.0504747 0.0475702 0)
(-0.0694555 0.0655603 0)
(-0.0897881 0.0821143 0)
(-0.109176 0.0950776 0)
(-0.124609 0.102018 0)
(-0.135441 0.102931 0)
(-0.143224 0.100055 0)
(-0.148738 0.0946005 0)
(-0.152318 0.0873307 0)
(-0.154478 0.0789479 0)
(-0.155443 0.0699176 0)
(-0.15563 0.0606157 0)
(-0.155272 0.0513309 0)
(-0.154564 0.0422628 0)
(-0.15365 0.0335144 0)
(-0.152576 0.0250747 0)
(-0.151317 0.0169099 0)
(-0.149944 0.00892135 0)
(-0.148445 0.00100267 0)
(-0.146854 -0.0069893 0)
(-0.145191 -0.0152247 0)
(-0.143513 -0.0239095 0)
(-0.141881 -0.033259 0)
(-0.140359 -0.043509 0)
(-0.138996 -0.0548917 0)
(-0.137801 -0.0676047 0)
(-0.136706 -0.0817236 0)
(-0.135476 -0.0970573 0)
(-0.133546 -0.11292 0)
(-0.129852 -0.127685 0)
(-0.122781 -0.138634 0)
(-0.110416 -0.141931 0)
(-0.0905771 -0.130332 0)
(-0.0594743 -0.094 0)
(-0.0138534 -0.0236299 0)
(0.00241174 0.0103234 0)
(-0.00538712 -0.0108552 0)
(-0.0159228 0.00609245 0)
(-0.0287593 0.0250741 0)
(-0.0442717 0.0453609 0)
(-0.0618937 0.0657587 0)
(-0.0806694 0.0846879 0)
(-0.0990015 0.100295 0)
(-0.114229 0.110012 0)
(-0.124778 0.112736 0)
(-0.131905 0.110572 0)
(-0.136785 0.105366 0)
(-0.139732 0.0980012 0)
(-0.141153 0.0892336 0)
(-0.141493 0.0796977 0)
(-0.141048 0.0698329 0)
(-0.140158 0.0599867 0)
(-0.13899 0.0503718 0)
(-0.137683 0.0411138 0)
(-0.136285 0.0322377 0)
(-0.134814 0.0237027 0)
(-0.133284 0.0154551 0)
(-0.131709 0.00739625 0)
(-0.13009 -0.00057952 0)
(-0.128443 -0.00860134 0)
(-0.126797 -0.0168283 0)
(-0.12521 -0.0254414 0)
(-0.123757 -0.0346464 0)
(-0.122532 -0.0446749 0)
(-0.121629 -0.0557727 0)
(-0.121116 -0.068173 0)
(-0.120992 -0.0820389 0)
(-0.121116 -0.097361 0)
(-0.121079 -0.113789 0)
(-0.119958 -0.130387 0)
(-0.116276 -0.145102 0)
(-0.108261 -0.154171 0)
(-0.094241 -0.151754 0)
(-0.0709939 -0.128991 0)
(-0.0311588 -0.0652674 0)
(0.000352769 -9.45935e-05 0)
(-0.00685258 0.00033206 0)
(-0.0198141 0.0201368 0)
(-0.034343 0.0404937 0)
(-0.0510163 0.0623281 0)
(-0.0686831 0.0835284 0)
(-0.0861437 0.101997 0)
(-0.101534 0.115076 0)
(-0.112437 0.120654 0)
(-0.119555 0.119984 0)
(-0.124157 0.115409 0)
(-0.126894 0.10827 0)
(-0.128024 0.09936 0)
(-0.128036 0.0894518 0)
(-0.127305 0.0791276 0)
(-0.126114 0.0687729 0)
(-0.124701 0.0586574 0)
(-0.123177 0.0489125 0)
(-0.121626 0.0395954 0)
(-0.120069 0.0306888 0)
(-0.118516 0.0221356 0)
(-0.116966 0.0138686 0)
(-0.115403 0.00578954 0)
(-0.113814 -0.00220667 0)
(-0.112204 -0.0102282 0)
(-0.110593 -0.0184138 0)
(-0.109032 -0.026916 0)
(-0.107599 -0.0359147 0)
(-0.106404 -0.045626 0)
(-0.105571 -0.0563034 0)
(-0.105219 -0.0682288 0)
(-0.105419 -0.0816712 0)
(-0.106128 -0.0967988 0)
(-0.107085 -0.113529 0)
(-0.10761 -0.13131 0)
(-0.106317 -0.148646 0)
(-0.101389 -0.162338 0)
(-0.0916113 -0.166524 0)
(-0.0744374 -0.154757 0)
(-0.0466555 -0.10895 0)
(-0.00639736 -0.0144337 0)
(-0.00779074 0.0135925 0)
(-0.0221829 0.035646 0)
(-0.0373986 0.0567663 0)
(-0.0542173 0.0790891 0)
(-0.0710353 0.100081 0)
(-0.0865997 0.116798 0)
(-0.0984782 0.126242 0)
(-0.106198 0.128141 0)
(-0.111055 0.124812 0)
(-0.113873 0.11824 0)
(-0.115116 0.109501 0)
(-0.115109 0.0994029 0)
(-0.114335 0.0887041 0)
(-0.113083 0.0778951 0)
(-0.111589 0.0672899 0)
(-0.110012 0.0570731 0)
(-0.108435 0.0473147 0)
(-0.106909 0.0380194 0)
(-0.105436 0.0291432 0)
(-0.104011 0.0206131 0)
(-0.102604 0.0123476 0)
(-0.101186 0.00425448 0)
(-0.0997284 -0.00377115 0)
(-0.0982268 -0.0118202 0)
(-0.096687 -0.0200014 0)
(-0.0951506 -0.0284404 0)
(-0.0936859 -0.0372823 0)
(-0.0923984 -0.0467124 0)
(-0.091423 -0.0569659 0)
(-0.0909081 -0.0683356 0)
(-0.0909775 -0.0811568 0)
(-0.0916704 -0.0957491 0)
(-0.092858 -0.112295 0)
(-0.0941039 -0.130656 0)
(-0.0943035 -0.149992 0)
(-0.091476 -0.167747 0)
(-0.0847537 -0.177173 0)
(-0.0716254 -0.173933 0)
(-0.0503698 -0.141557 0)
(-0.0148193 -0.0402597 0)
(-0.00812273 0.0277431 0)
(-0.022977 0.051708 0)
(-0.0380457 0.072923 0)
(-0.0542907 0.0949815 0)
(-0.0697634 0.114918 0)
(-0.0831853 0.12912 0)
(-0.0916154 0.134431 0)
(-0.0974283 0.133494 0)
(-0.100646 0.127957 0)
(-0.102265 0.119713 0)
(-0.102568 0.10969 0)
(-0.101959 0.0987295 0)
(-0.100833 0.0875102 0)
(-0.0994178 0.0764265 0)
(-0.0979045 0.0657203 0)
(-0.0964021 0.0555066 0)
(-0.0949747 0.0458082 0)
(-0.0936415 0.0365885 0)
(-0.0923892 0.0277767 0)
(-0.0911903 0.0192828 0)
(-0.0900025 0.0110172 0)
(-0.0887847 0.00289203 0)
(-0.0875099 -0.0051883 0)
(-0.0861591 -0.013301 0)
(-0.0847305 -0.0215274 0)
(-0.0832518 -0.0299663 0)
(-0.0817761 -0.0387292 0)
(-0.0803929 -0.0479657 0)
(-0.0792288 -0.0578815 0)
(-0.07844 -0.0687619 0)
(-0.0781847 -0.080979 0)
(-0.0785673 -0.0949625 0)
(-0.0795618 -0.111097 0)
(-0.0809158 -0.129544 0)
(-0.081868 -0.150011 0)
(-0.0806158 -0.170933 0)
(-0.0753929 -0.185675 0)
(-0.0655196 -0.188846 0)
(-0.0469899 -0.168715 0)
(-0.0176735 -0.0860934 0)
(-0.00794989 0.0419546 0)
(-0.0224916 0.0676142 0)
(-0.0368056 0.0884555 0)
(-0.0519459 0.109697 0)
(-0.0659678 0.127992 0)
(-0.0763159 0.138382 0)
(-0.0827375 0.140742 0)
(-0.087222 0.137345 0)
(-0.0893005 0.129966 0)
(-0.0901771 0.120336 0)
(-0.0899665 0.109323 0)
(-0.0891146 0.0977541 0)
(-0.0879183 0.0862007 0)
(-0.086567 0.0749804 0)
(-0.0852083 0.0642704 0)
(-0.0839216 0.054128 0)
(-0.0827447 0.044531 0)
(-0.0816742 0.0354074 0)
(-0.0806823 0.0266631 0)
(-0.0797305 0.0181963 0)
(-0.0787726 0.00991462 0)
(-0.0777649 0.00173626 0)
(-0.0766821 -0.00642347 0)
(-0.0755001 -0.0146305 0)
(-0.0742116 -0.0229449 0)
(-0.0728314 -0.0314411 0)
(-0.0713958 -0.0402016 0)
(-0.0699718 -0.0493396 0)
(-0.0686633 -0.0590224 0)
(-0.0676132 -0.0695057 0)
(-0.0669909 -0.0811672 0)
(-0.0669489 -0.0945133 0)
(-0.0675441 -0.110109 0)
(-0.0686424 -0.128378 0)
(-0.0697734 -0.149389 0)
(-0.069546 -0.172413 0)
(-0.0654384 -0.192708 0)
(-0.0581519 -0.200323 0)
(-0.0421313 -0.189372 0)
(-0.014896 -0.117727 0)
(-0.00732415 0.0555485 0)
(-0.0209358 0.0826719 0)
(-0.0340843 0.102784 0)
(-0.0477541 0.122754 0)
(-0.0600389 0.138939 0)
(-0.0677029 0.145742 0)
(-0.0730815 0.145679 0)
(-0.0763087 0.140149 0)
(-0.0776999 0.131244 0)
(-0.0781405 0.120491 0)
(-0.077713 0.108731 0)
(-0.0768447 0.096733 0)
(-0.0757511 0.0849762 0)
(-0.0745908 0.0737106 0)
(-0.0734755 0.0630549 0)
(-0.0724592 0.0530156 0)
(-0.0715566 0.0435296 0)
(-0.0707496 0.0344961 0)
(-0.0700032 0.0258042 0)
(-0.0692768 0.0173462 0)
(-0.068527 0.00903059 0)
(-0.0677134 0.000782022 0)
(-0.0668132 -0.00747306 0)
(-0.0658034 -0.0157922 0)
(-0.0646733 -0.0242207 0)
(-0.0634281 -0.0328139 0)
(-0.0620894 -0.0416319 0)
(-0.0607023 -0.0507575 0)
(-0.0593435 -0.0603204 0)
(-0.0581294 -0.0705358 0)
(-0.0572177 -0.0817564 0)
(-0.0567844 -0.0945178 0)
(-0.0569556 -0.109519 0)
(-0.0576985 -0.127452 0)
(-0.0587072 -0.148675 0)
(-0.0589591 -0.172869 0)
(-0.0561253 -0.19794 0)
(-0.0497019 -0.211011 0)
(-0.0368494 -0.207945 0)
(-0.0130746 -0.148431 0)
(-0.00636867 0.0679145 0)
(-0.0186537 0.0964621 0)
(-0.0303676 0.115711 0)
(-0.0425653 0.134325 0)
(-0.0525327 0.147534 0)
(-0.0584113 0.151689 0)
(-0.0629333 0.149512 0)
(-0.0652493 0.142232 0)
(-0.0662453 0.132081 0)
(-0.0664589 0.120436 0)
(-0.0660049 0.108114 0)
(-0.0652492 0.0958195 0)
(-0.0643486 0.0839461 0)
(-0.0634343 0.0726886 0)
(-0.0625866 0.0621123 0)
(-0.061838 0.0521788 0)
(-0.0611873 0.0427912 0)
(-0.06061 0.0338277 0)
(-0.0600708 0.025167 0)
(-0.0595331 0.0167 0)
(-0.0589603 0.0083378 0)
(-0.0583186 1.04888e-05 0)
(-0.0575872 -0.00834561 0)
(-0.0567474 -0.0167814 0)
(-0.0557867 -0.0253337 0)
(-0.0547036 -0.0340435 0)
(-0.0535082 -0.0429545 0)
(-0.0522275 -0.0521266 0)
(-0.0509128 -0.0616571 0)
(-0.049651 -0.0717193 0)
(-0.0485741 -0.0826242 0)
(-0.0478562 -0.0948966 0)
(-0.0476679 -0.109316 0)
(-0.0480669 -0.126805 0)
(-0.0488533 -0.148064 0)
(-0.0493122 -0.173225 0)
(-0.0476228 -0.200722 0)
(-0.0419701 -0.219997 0)
(-0.0319766 -0.222104 0)
(-0.0107424 -0.17191 0)
(-0.0052875 0.0787765 0)
(-0.0159226 0.108669 0)
(-0.0260458 0.126977 0)
(-0.0365894 0.144028 0)
(-0.0443395 0.154369 0)
(-0.0489584 0.156528 0)
(-0.0527112 0.152521 0)
(-0.0543833 0.143825 0)
(-0.055156 0.132671 0)
(-0.0552791 0.120328 0)
(-0.054906 0.107591 0)
(-0.0543239 0.0950902 0)
(-0.0536502 0.0831539 0)
(-0.0529878 0.0719281 0)
(-0.0523912 0.0614313 0)
(-0.051877 0.0515881 0)
(-0.0514361 0.0422757 0)
(-0.0510439 0.0333586 0)
(-0.0506699 0.0247101 0)
(-0.0502848 0.016222 0)
(-0.0498604 0.00780819 0)
(-0.0493703 -0.000597183 0)
(-0.0487966 -0.00905049 0)
(-0.0481242 -0.0175974 0)
(-0.0473407 -0.0262703 0)
(-0.04644 -0.0351008 0)
(-0.0454238 -0.0441217 0)
(-0.0443052 -0.0533757 0)
(-0.0431155 -0.0629347 0)
(-0.0419146 -0.0729343 0)
(-0.0408052 -0.0836373 0)
(-0.039942 -0.0955288 0)
(-0.0395125 -0.109414 0)
(-0.0396458 -0.126391 0)
(-0.0402428 -0.147494 0)
(-0.0408266 -0.173241 0)
(-0.0398494 -0.202864 0)
(-0.0349723 -0.228153 0)
(-0.0279009 -0.234975 0)
(-0.00932022 -0.193647 0)
(-0.00402793 0.087615 0)
(-0.0129094 0.11904 0)
(-0.0213509 0.136464 0)
(-0.0301044 0.151845 0)
(-0.0359016 0.15977 0)
(-0.0397891 0.160447 0)
(-0.0426526 0.154889 0)
(-0.0438969 0.145079 0)
(-0.0445322 0.133138 0)
(-0.0446449 0.120259 0)
(-0.0444001 0.107216 0)
(-0.044009 0.0945703 0)
(-0.0435591 0.0825999 0)
(-0.0431257 0.0714086 0)
(-0.0427438 0.0609762 0)
(-0.0424201 0.0511992 0)
(-0.0421435 0.0419369 0)
(-0.0418938 0.0330453 0)
(-0.0416483 0.0243956 0)
(-0.0413859 0.0158815 0)
(-0.0410874 0.00741895 0)
(-0.0407334 -0.00105574 0)
(-0.0403093 -0.0095943 0)
(-0.039803 -0.0182387 0)
(-0.0392031 -0.0270195 0)
(-0.0385004 -0.0359633 0)
(-0.0376907 -0.0450954 0)
(-0.0367769 -0.0544469 0)
(-0.0357753 -0.06407 0)
(-0.0347249 -0.0740688 0)
(-0.0337023 -0.0846589 0)
(-0.0328376 -0.0962704 0)
(-0.0323165 -0.109687 0)
(-0.0323196 -0.126121 0)
(-0.0328501 -0.146948 0)
(-0.0335378 -0.173009 0)
(-0.0331643 -0.203814 0)
(-0.0297259 -0.233958 0)
(-0.02358 -0.245622 0)
(-0.00786805 -0.210919 0)
(-0.00283989 0.0946434 0)
(-0.0097607 0.127555 0)
(-0.016522 0.144178 0)
(-0.0234664 0.157945 0)
(-0.0276575 0.164018 0)
(-0.0308229 0.16347 0)
(-0.0329079 0.156732 0)
(-0.0338542 0.146082 0)
(-0.0343934 0.133546 0)
(-0.0345349 0.120268 0)
(-0.0344277 0.107002 0)
(-0.0342183 0.0942532 0)
(-0.0339682 0.0822602 0)
(-0.0337281 0.0710933 0)
(-0.0335189 0.0607033 0)
(-0.0333423 0.0509669 0)
(-0.0331894 0.0417323 0)
(-0.033047 0.032851 0)
(-0.0329011 0.0241936 0)
(-0.032739 0.015655 0)
(-0.0325493 0.00715304 0)
(-0.0323199 -0.00137578 0)
(-0.0320397 -0.00998119 0)
(-0.0316994 -0.0187032 0)
(-0.0312881 -0.0275723 0)
(-0.0307958 -0.0366131 0)
(-0.0302139 -0.0458466 0)
(-0.029538 -0.0552961 0)
(-0.0287729 -0.0649989 0)
(-0.0279413 -0.075033 0)
(-0.0270979 -0.0855714 0)
(-0.0263482 -0.0969851 0)
(-0.0258642 -0.110009 0)
(-0.0258574 -0.125903 0)
(-0.0264256 -0.14632 0)
(-0.02726 -0.172542 0)
(-0.0273426 -0.204522 0)
(-0.0250269 -0.238557 0)
(-0.0206849 -0.254975 0)
(-0.00684083 -0.226879 0)
(-0.00144638 0.0993014 0)
(-0.0065547 0.134048 0)
(-0.011689 0.150183 0)
(-0.0168584 0.162466 0)
(-0.0196936 0.167159 0)
(-0.0221156 0.165708 0)
(-0.0235459 0.158131 0)
(-0.0242529 0.146887 0)
(-0.0247104 0.133924 0)
(-0.0248903 0.120363 0)
(-0.0249082 0.106939 0)
(-0.0248566 0.0941146 0)
(-0.0247731 0.0821001 0)
(-0.024688 0.0709418 0)
(-0.024612 0.0605709 0)
(-0.0245453 0.0508521 0)
(-0.0244838 0.0416277 0)
(-0.0244217 0.0327472 0)
(-0.0243539 0.0240813 0)
(-0.0242755 0.0155256 0)
(-0.0241824 0.00699821 0)
(-0.0240691 -0.00156484 0)
(-0.0239286 -0.0102138 0)
(-0.0237538 -0.0189888 0)
(-0.0235355 -0.0279211 0)
(-0.0232633 -0.0370356 0)
(-0.0229259 -0.046352 0)
(-0.022514 -0.0558886 0)
(-0.0220239 -0.0656717 0)
(-0.0214658 -0.0757581 0)
(-0.0208766 -0.086283 0)
(-0.0203392 -0.0975583 0)
(-0.020006 -0.110252 0)
(-0.0200977 -0.125624 0)
(-0.0207815 -0.145541 0)
(-0.0218443 -0.171711 0)
(-0.0224871 -0.204669 0)
(-0.02124 -0.24133 0)
(-0.0179508 -0.262528 0)
(-0.00586009 -0.240066 0)
(-0.000388696 0.102315 0)
(-0.00340532 0.138675 0)
(-0.00692454 0.154464 0)
(-0.0103679 0.165511 0)
(-0.0121081 0.169383 0)
(-0.013711 0.167231 0)
(-0.0145731 0.159129 0)
(-0.015056 0.147513 0)
(-0.0154274 0.134277 0)
(-0.0156355 0.120533 0)
(-0.0157533 0.107004 0)
(-0.0158288 0.0941228 0)
(-0.0158774 0.0820834 0)
(-0.0159118 0.0709168 0)
(-0.0159358 0.0605438 0)
(-0.0159501 0.0508238 0)
(-0.0159557 0.0415971 0)
(-0.0159545 0.032713 0)
(-0.0159493 0.0240425 0)
(-0.0159431 0.0154809 0)
(-0.0159379 0.00694558 0)
(-0.015934 -0.0016288 0)
(-0.0159294 -0.0102947 0)
(-0.0159194 -0.0190939 0)
(-0.0158967 -0.0280599 0)
(-0.0158516 -0.0372194 0)
(-0.0157716 -0.0465927 0)
(-0.0156441 -0.056196 0)
(-0.0154594 -0.0660479 0)
(-0.015218 -0.0761878 0)
(-0.0149428 -0.0867184 0)
(-0.0146976 -0.0978963 0)
(-0.0146137 -0.110313 0)
(-0.0149062 -0.125183 0)
(-0.0157865 -0.144522 0)
(-0.0171338 -0.170513 0)
(-0.0183641 -0.204237 0)
(-0.0180609 -0.24334 0)
(-0.0160489 -0.269075 0)
(-0.00513342 -0.25234 0)
(0.0011209 0.102706 0)
(-0.000280681 0.141367 0)
(-0.0022189 0.157074 0)
(-0.00408106 0.167267 0)
(-0.00483825 0.170676 0)
(-0.0056163 0.16808 0)
(-0.00596011 0.159741 0)
(-0.00620971 0.14796 0)
(-0.00647688 0.134591 0)
(-0.00668898 0.120754 0)
(-0.00687495 0.107166 0)
(-0.00704488 0.0942446 0)
(-0.00719279 0.0821764 0)
(-0.00731653 0.0709869 0)
(-0.00741442 0.0605945 0)
(-0.00748824 0.0508589 0)
(-0.0075439 0.041622 0)
(-0.00759032 0.032734 0)
(-0.00763765 0.0240659 0)
(-0.00769558 0.0155122 0)
(-0.0077721 0.00698867 0)
(-0.00787287 -0.00157243 0)
(-0.00800056 -0.0102264 0)
(-0.0081536 -0.0190188 0)
(-0.00832742 -0.0279856 0)
(-0.00851368 -0.0371566 0)
(-0.00870032 -0.0465549 0)
(-0.00887281 -0.0561966 0)
(-0.00901722 -0.0660954 0)
(-0.00912703 -0.0762772 0)
(-0.0092134 -0.0868165 0)
(-0.00932362 -0.0979197 0)
(-0.00956853 -0.110102 0)
(-0.010149 -0.124504 0)
(-0.0113069 -0.14322 0)
(-0.0130157 -0.168878 0)
(-0.0148193 -0.2031 0)
(-0.015371 -0.244126 0)
(-0.0143689 -0.27426 0)
(-0.0044581 -0.262803 0)
(0.00210875 0.101376 0)
(0.00269242 0.142223 0)
(0.00234235 0.158148 0)
(0.00194026 0.167846 0)
(0.0021466 0.171065 0)
(0.00219965 0.168278 0)
(0.00234717 0.159955 0)
(0.0023467 0.148199 0)
(0.00221212 0.134836 0)
(0.00202873 0.120994 0)
(0.00180989 0.107392 0)
(0.0015789 0.0944476 0)
(0.00136182 0.0823497 0)
(0.00117427 0.0711269 0)
(0.00102276 0.0607025 0)
(0.000904715 0.0509417 0)
(0.000810121 0.0416903 0)
(0.000724264 0.0328006 0)
(0.000630706 0.0241441 0)
(0.000513612 0.0156138 0)
(0.00035938 0.00712284 0)
(0.000157389 -0.00139936 0)
(-9.96827e-05 -0.0100116 0)
(-0.000413849 -0.0187637 0)
(-0.000783636 -0.0276963 0)
(-0.00120319 -0.0368427 0)
(-0.00166191 -0.0462293 0)
(-0.00214512 -0.0558744 0)
(-0.00263715 -0.0657893 0)
(-0.00312607 -0.0759904 0)
(-0.00361311 -0.0865289 0)
(-0.00413071 -0.0975653 0)
(-0.0047689 -0.109539 0)
(-0.00570906 -0.123502 0)
(-0.00720966 -0.141571 0)
(-0.00934196 -0.166789 0)
(-0.0117381 -0.20138 0)
(-0.013081 -0.244178 0)
(-0.0131786 -0.278679 0)
(-0.0039398 -0.272664 0)
(0.0031699 0.0981462 0)
(0.00561432 0.141303 0)
(0.00676144 0.157802 0)
(0.00769647 0.167305 0)
(0.00888254 0.170484 0)
(0.00972568 0.167838 0)
(0.0103757 0.159815 0)
(0.010668 0.148217 0)
(0.0107044 0.134984 0)
(0.0105894 0.121217 0)
(0.0103766 0.107647 0)
(0.0101191 0.0947001 0)
(0.00986236 0.0825767 0)
(0.00963343 0.0713163 0)
(0.00944417 0.0608528 0)
(0.00929268 0.0510611 0)
(0.00916634 0.041794 0)
(0.00904593 0.0329074 0)
(0.00890965 0.0242729 0)
(0.00873618 0.0157821 0)
(0.00850665 0.00734504 0)
(0.00820561 -0.00111233 0)
(0.00782174 -0.00965262 0)
(0.00734842 -0.0183304 0)
(0.00678359 -0.0271913 0)
(0.00613029 -0.0362732 0)
(0.00539669 -0.0456081 0)
(0.00459535 -0.055217 0)
(0.00374192 -0.065111 0)
(0.00285191 -0.0752993 0)
(0.00193108 -0.0858156 0)
(0.000961122 -0.096781 0)
(-0.000126011 -0.108562 0)
(-0.00149011 -0.122116 0)
(-0.00339631 -0.139533 0)
(-0.00599745 -0.164191 0)
(-0.00900226 -0.198968 0)
(-0.0110157 -0.24323 0)
(-0.0121611 -0.282093 0)
(-0.00344761 -0.281318 0)
(0.00427793 0.0927646 0)
(0.00849286 0.138621 0)
(0.0110436 0.156077 0)
(0.0132001 0.165683 0)
(0.0153483 0.169012 0)
(0.0169637 0.166732 0)
(0.0181618 0.159267 0)
(0.0187991 0.147981 0)
(0.01905 0.134992 0)
(0.0190509 0.121382 0)
(0.0188889 0.107893 0)
(0.0186437 0.0949711 0)
(0.0183776 0.0828331 0)
(0.0181296 0.0715365 0)
(0.0179179 0.0610325 0)
(0.0177428 0.0512092 0)
(0.0175906 0.0419286 0)
(0.0174389 0.0330514 0)
(0.0172618 0.0244503 0)
(0.0170333 0.0160152 0)
(0.0167299 0.00765344 0)
(0.0163312 -0.000713165 0)
(0.0158221 -0.0091515 0)
(0.0151915 -0.0177211 0)
(0.0144331 -0.0264728 0)
(0.0135467 -0.0354485 0)
(0.0125364 -0.0446857 0)
(0.0114105 -0.0542116 0)
(0.0101844 -0.0640399 0)
(0.00887409 -0.0741762 0)
(0.00749033 -0.0846409 0)
(0.0060293 -0.0955212 0)
(0.00444323 -0.107114 0)
(0.00259735 -0.120278 0)
(0.000226251 -0.137046 0)
(-0.00288983 -0.161075 0)
(-0.00656156 -0.195954 0)
(-0.00912973 -0.241511 0)
(-0.0114271 -0.284957 0)
(-0.00303659 -0.289577 0)
(0.0053133 0.0855653 0)
(0.0112641 0.134262 0)
(0.0151809 0.153055 0)
(0.018468 0.163036 0)
(0.021634 0.166676 0)
(0.0238362 0.164938 0)
(0.0256639 0.158263 0)
(0.0267439 0.147442 0)
(0.027272 0.134808 0)
(0.0274496 0.121438 0)
(0.0273942 0.108086 0)
(0.0272081 0.0952228 0)
(0.0269695 0.0830898 0)
(0.0267299 0.0717682 0)
(0.0265148 0.0612294 0)
(0.0263278 0.0513787 0)
(0.0261561 0.0420899 0)
(0.0259763 0.0332303 0)
(0.0257596 0.0246748 0)
(0.0254767 0.0163123 0)
(0.0250997 0.00804693 0)
(0.0246042 -0.000203236 0)
(0.023971 -0.00850992 0)
(0.0231848 -0.0169376 0)
(0.0222343 -0.0255418 0)
(0.0211149 -0.0343697 0)
(0.0198254 -0.0434632 0)
(0.0183707 -0.0528551 0)
(0.0167619 -0.0625636 0)
(0.015013 -0.0725964 0)
(0.0131399 -0.0829678 0)
(0.0111496 -0.0937404 0)
(0.00901689 -0.105144 0)
(0.00663234 -0.117931 0)
(0.00373984 -0.13405 0)
(6.90007e-05 -0.157378 0)
(-0.00432262 -0.192263 0)
(-0.00734933 -0.239121 0)
(-0.0110047 -0.286792 0)
(-0.00236535 -0.297122 0)
(0.00621868 0.0766153 0)
(0.0138718 0.128253 0)
(0.0191015 0.148768 0)
(0.0234612 0.159396 0)
(0.0274125 0.16365 0)
(0.0305256 0.162411 0)
(0.0328891 0.156654 0)
(0.0345005 0.14652 0)
(0.0353837 0.134364 0)
(0.035807 0.12132 0)
(0.0359245 0.10817 0)
(0.0358553 0.09541 0)
(0.0356921 0.0833126 0)
(0.035497 0.0719862 0)
(0.0353037 0.0614265 0)
(0.0351214 0.0515591 0)
(0.0349402 0.0422723 0)
(0.0347377 0.0334418 0)
(0.0344842 0.0249459 0)
(0.0341478 0.0166732 0)
(0.0336978 0.00852554 0)
(0.0331055 0.000417117 0)
(0.0323485 -0.00772856 0)
(0.0314072 -0.0159804 0)
(0.0302649 -0.0243976 0)
(0.0289111 -0.0330331 0)
(0.0273398 -0.0419346 0)
(0.0255499 -0.0511409 0)
(0.0235466 -0.0606747 0)
(0.0213423 -0.0705467 0)
(0.0189543 -0.0807703 0)
(0.0163957 -0.0913948 0)
(0.0136681 -0.102601 0)
(0.0106886 -0.115021 0)
(0.00722113 -0.13049 0)
(0.00294863 -0.153055 0)
(-0.00224595 -0.187886 0)
(-0.00569851 -0.236103 0)
(-0.0107169 -0.287771 0)
(-0.00178126 -0.304434 0)
(0.00692004 0.0660034 0)
(0.0162087 0.120694 0)
(0.022716 0.143312 0)
(0.0281026 0.154845 0)
(0.0328342 0.159784 0)
(0.0367809 0.159257 0)
(0.0397658 0.15439 0)
(0.0419931 0.145126 0)
(0.0433418 0.133577 0)
(0.04411 0.120952 0)
(0.0444859 0.108074 0)
(0.0446084 0.0954734 0)
(0.0445829 0.0834541 0)
(0.0444816 0.072155 0)
(0.044347 0.0615993 0)
(0.0441955 0.0517348 0)
(0.0440224 0.0424666 0)
(0.0438081 0.033681 0)
(0.0435238 0.0252613 0)
(0.043137 0.0170973 0)
(0.042615 0.00908932 0)
(0.0419257 0.00114836 0)
(0.0410439 -0.00680677 0)
(0.0399458 -0.0148488 0)
(0.0386092 -0.0230389 0)
(0.0370174 -0.0314354 0)
(0.0351589 -0.040092 0)
(0.0330248 -0.0490529 0)
(0.030613 -0.0583484 0)
(0.0279313 -0.0679972 0)
(0.0249969 -0.0780168 0)
(0.0218346 -0.0884472 0)
(0.0184629 -0.0994297 0)
(0.014838 -0.111493 0)
(0.010746 -0.126318 0)
(0.00582068 -0.148063 0)
(-0.000265671 -0.182763 0)
(-0.0041446 -0.23239 0)
(-0.0105569 -0.288098 0)
(-0.00087894 -0.311297 0)
(0.00729 0.0539989 0)
(0.0181415 0.111566 0)
(0.0258475 0.136638 0)
(0.0322311 0.149371 0)
(0.0377695 0.155093 0)
(0.0424701 0.155431 0)
(0.0462373 0.151397 0)
(0.0491336 0.143142 0)
(0.0510656 0.132334 0)
(0.0523031 0.120233 0)
(0.0530507 0.107711 0)
(0.0534632 0.0953369 0)
(0.0536578 0.0834516 0)
(0.0537179 0.0722256 0)
(0.0536953 0.061711 0)
(0.0536145 0.0518797 0)
(0.0534779 0.0426554 0)
(0.0532709 0.0339369 0)
(0.052968 0.0256148 0)
(0.0525378 0.0175818 0)
(0.0519472 0.00973763 0)
(0.0511615 0.00199165 0)
(0.0501534 -0.00574222 0)
(0.0488951 -0.0135391 0)
(0.047358 -0.0214608 0)
(0.0455208 -0.0295707 0)
(0.043365 -0.037928 0)
(0.0408738 -0.0465808 0)
(0.0380365 -0.0555677 0)
(0.0348552 -0.0649197 0)
(0.0313462 -0.0746662 0)
(0.0275394 -0.0848524 0)
(0.0234741 -0.0955822 0)
(0.0191439 -0.107286 0)
(0.0143671 -0.121487 0)
(0.00873308 -0.142397 0)
(0.00169272 -0.176925 0)
(-0.00251672 -0.227955 0)
(-0.0103605 -0.287712 0)
(-3.09961e-05 -0.318045 0)
(0.00709348 0.0409063 0)
(0.0194023 0.10112 0)
(0.0282905 0.128847 0)
(0.0356856 0.143011 0)
(0.0420508 0.149612 0)
(0.0475234 0.150793 0)
(0.0521073 0.147659 0)
(0.0557791 0.140453 0)
(0.0584339 0.130496 0)
(0.0602853 0.119032 0)
(0.0615452 0.106963 0)
(0.0623746 0.0948996 0)
(0.0628991 0.0832201 0)
(0.0632121 0.072129 0)
(0.0633756 0.0617078 0)
(0.0634236 0.0519535 0)
(0.0633671 0.04281 0)
(0.0631989 0.0341904 0)
(0.0628987 0.0259947 0)
(0.0624388 0.01812 0)
(0.0617867 0.0104681 0)
(0.0609078 0.00294773 0)
(0.0597723 -0.00453171 0)
(0.0583492 -0.0120449 0)
(0.0566037 -0.019654 0)
(0.0545103 -0.0274278 0)
(0.0520439 -0.0354287 0)
(0.0491786 -0.0437081 0)
(0.0458955 -0.0523138 0)
(0.0421895 -0.0612915 0)
(0.0380744 -0.0706874 0)
(0.0335828 -0.0805594 0)
(0.0287663 -0.0909978 0)
(0.0236593 -0.102333 0)
(0.0181273 -0.115928 0)
(0.0116992 -0.135993 0)
(0.00368239 -0.170329 0)
(-0.000740084 -0.222849 0)
(-0.0105967 -0.286247 0)
(0.00102469 -0.324493 0)
(0.00591797 0.0277822 0)
(0.0196388 0.089148 0)
(0.0297316 0.119725 0)
(0.0381989 0.135659 0)
(0.0454691 0.143333 0)
(0.0517598 0.145345 0)
(0.057197 0.143085 0)
(0.0617494 0.136927 0)
(0.0652801 0.127914 0)
(0.0679155 0.117191 0)
(0.069851 0.105682 0)
(0.0712503 0.0940304 0)
(0.0722426 0.0826477 0)
(0.0729278 0.0717721 0)
(0.073377 0.0615145 0)
(0.0736345 0.0518977 0)
(0.0737212 0.0428865 0)
(0.0736392 0.0344102 0)
(0.073376 0.0263797 0)
(0.0729095 0.0186991 0)
(0.07221 0.0112745 0)
(0.0712454 0.00401513 0)
(0.0699833 -0.00317217 0)
(0.0683907 -0.0103585 0)
(0.0664281 -0.0176073 0)
(0.0640655 -0.0249921 0)
(0.0612713 -0.0325755 0)
(0.0580107 -0.0404121 0)
(0.054257 -0.0485592 0)
(0.0499981 -0.0570799 0)
(0.0452431 -0.0660408 0)
(0.0400269 -0.0755207 0)
(0.0344014 -0.0856091 0)
(0.0284552 -0.0965607 0)
(0.0220763 -0.109565 0)
(0.0147843 -0.128789 0)
(0.00577675 -0.162848 0)
(0.00128811 -0.21687 0)
(-0.0108766 -0.284364 0)
(0.00224767 -0.330793 0)
(0.00324404 0.0155542 0)
(0.0184441 0.0764969 0)
(0.0299094 0.109411 0)
(0.0395377 0.127283 0)
(0.0477981 0.136186 0)
(0.0549563 0.139036 0)
(0.0612943 0.13759 0)
(0.0668269 0.132428 0)
(0.0713855 0.124407 0)
(0.0749983 0.114534 0)
(0.077801 0.103701 0)
(0.079949 0.0925729 0)
(0.0815725 0.0815945 0)
(0.0827751 0.0710342 0)
(0.0836355 0.0610305 0)
(0.0842075 0.0516311 0)
(0.0845228 0.0428217 0)
(0.084594 0.0345488 0)
(0.0844183 0.0267361 0)
(0.0839811 0.0192968 0)
(0.0832584 0.0121442 0)
(0.0822218 0.00518804 0)
(0.0808385 -0.00166265 0)
(0.079074 -0.00847225 0)
(0.0768862 -0.0153088 0)
(0.0742411 -0.0222469 0)