/*--------------------------------*- C++ -*----------------------------------*\
  =========                 |
  \\      /  F ield         | OpenFOAM: The Open Source CFD Toolbox
   \\    /   O peration     | Website:  https://openfoam.org
    \\  /    A nd           | Version:  12
     \\/     M anipulation  |
\*---------------------------------------------------------------------------*/
FoamFile
{
    format      ascii;
    class       volScalarField;
    location    "9";
    object      epsilon;
}
// * * * * * * * * * * * * * * * * * * * * * * * * * * * * * * * * * * * * * //

dimensions      [0 2 -3 0 0 0 0];

internalField   nonuniform List<scalar> 
1600
(
3.04152e-05
0.000100758
0.000193208
0.000191437
0.000174354
0.000178589
0.00023162
0.000395633
0.000595477
0.000874056
0.00132808
0.00164031
0.0018027
0.00201091
0.002331
0.00273514
0.00310426
0.00353117
0.00393811
0.00440928
0.00488611
0.00543668
0.00602796
0.00672228
0.00752783
0.00822926
0.00895377
0.00956388
0.0100956
0.0103812
0.0104943
0.0102814
0.00946279
0.0080685
0.00609491
0.00364885
0.00178983
0.000758401
0.000243818
5.10003e-05
0.00014664
0.000182774
0.000220731
0.000209622
0.000201501
0.000241194
0.000426006
0.000919812
0.00164747
0.00274018
0.00471539
0.00559369
0.00565431
0.00527828
0.00494278
0.00479467
0.00466119
0.00462035
0.00461282
0.00471504
0.00485142
0.00506588
0.00529655
0.00559305
0.00595166
0.00638924
0.00687817
0.007441
0.00799685
0.00846486
0.00868244
0.00872103
0.00814696
0.00707776
0.00529073
0.00308727
0.00130746
0.000575179
0.000209627
8.52553e-05
0.000442314
0.000464396
0.000464261
0.00043844
0.000493558
0.000824084
0.00180714
0.00371044
0.00590082
0.00677757
0.00654504
0.0055783
0.00510762
0.00449211
0.00409451
0.00377794
0.00353301
0.0033714
0.0032742
0.00323212
0.00321986
0.0032593
0.00336698
0.00351739
0.00370973
0.00394532
0.00422826
0.00456919
0.00497208
0.00546231
0.00601319
0.00653194
0.00677071
0.00671672
0.00586201
0.00399901
0.00130005
0.000361214
0.000131112
6.9856e-05
0.00100919
0.000900471
0.000882359
0.000939611
0.00137325
0.00267932
0.00505706
0.00669207
0.0070573
0.00638046
0.00544534
0.0042715
0.00358987
0.00307501
0.00281122
0.00256333
0.00243747
0.00235532
0.00232075
0.00231197
0.0023384
0.0023961
0.00247507
0.00257905
0.00270497
0.0028592
0.00304489
0.00326915
0.0035375
0.00385811
0.00423522
0.00468683
0.00529122
0.00589793
0.00613692
0.00567513
0.00292742
0.000504151
0.000105811
4.8254e-05
0.00189064
0.00152346
0.00160081
0.00200696
0.00319673
0.00528199
0.00660691
0.00685356
0.00625686
0.004696
0.00354536
0.00292154
0.0024957
0.00222367
0.00206397
0.0019598
0.0019151
0.00189957
0.00190067
0.0019355
0.00197726
0.00203516
0.00210234
0.00218576
0.00228524
0.00240794
0.00255913
0.00274588
0.00297096
0.00323786
0.0035491
0.00390591
0.00432889
0.00489082
0.00572796
0.00610932
0.00547159
0.00156726
0.000197314
5.53251e-05
0.00314249
0.00240448
0.0026974
0.00352176
0.00509165
0.0062604
0.00653131
0.0060329
0.00428404
0.0030935
0.00250173
0.00212602
0.00188981
0.00175922
0.00169439
0.0016665
0.00165981
0.00166987
0.00169498
0.00172858
0.00176905
0.00181968
0.00188137
0.00195837
0.0020533
0.00217175
0.00231818
0.00249798
0.00271566
0.00297403
0.00327345
0.00361856
0.0039923
0.00441392
0.00495634
0.00569468
0.00600591
0.00420481
0.000599888
0.000102824
0.0047043
0.00353137
0.00400303
0.00495909
0.00590718
0.0061837
0.00582269
0.00418525
0.00285982
0.00223222
0.00189687
0.00167707
0.001566
0.00151083
0.00148572
0.00147598
0.00147364
0.00147831
0.00148953
0.00150563
0.00153013
0.00156635
0.00161739
0.00168766
0.00178165
0.00190515
0.00206379
0.00226357
0.00250906
0.00280154
0.00313605
0.00350018
0.00388799
0.00429562
0.00471129
0.00523107
0.00562809
0.00553622
0.00152395
0.000231402
0.0063742
0.00476062
0.00519459
0.00574759
0.00594867
0.00567675
0.00430851
0.00281227
0.00209221
0.0017428
0.00154246
0.00142654
0.00137018
0.00133714
0.00131393
0.00129379
0.0012752
0.00125946
0.00124997
0.0012464
0.00125041
0.00127159
0.00130925
0.00136876
0.00145493
0.00157397
0.00173362
0.0019428
0.00221076
0.00254416
0.0029417
0.00338684
0.00384512
0.00428666
0.00468394
0.00510496
0.00552381
0.00567619
0.00334045
0.000579205
0.00779435
0.0058807
0.00605079
0.00610178
0.00568203
0.00459097
0.00298756
0.00207531
0.00165621
0.00144948
0.00132639
0.00125875
0.00121687
0.00117874
0.00114119
0.00110222
0.00106431
0.00103013
0.00100262
0.000987297
0.000981736
0.000987513
0.00101584
0.00106333
0.00113753
0.00124356
0.00139053
0.00158978
0.0018557
0.00220383
0.00264559
0.00317701
0.00376239
0.00432616
0.00482334
0.00513975
0.00551877
0.00572389
0.00507122
0.00156984
0.00883605
0.00669834
0.00656502
0.00603499
0.00503708
0.0034556
0.00221311
0.00165237
0.00139067
0.00125926
0.00117507
0.00112212
0.00107345
0.00102142
0.000967576
0.000913312
0.000862715
0.000818561
0.000783471
0.000761546
0.000752036
0.000750691
0.000770482
0.000808074
0.000868879
0.000958255
0.00108482
0.00126082
0.00150338
0.00183491
0.00228075
0.00285995
0.00356408
0.00432574
0.0050028
0.0054259
0.0056728
0.00583655
0.00565354
0.00279062
0.00958228
0.00722619
0.00678374
0.00578344
0.00419983
0.00259236
0.00176227
0.00139101
0.00121516
0.00112103
0.00105182
0.000996025
0.000934951
0.000870321
0.00080537
0.000743364
0.000688096
0.000641607
0.000605486
0.000581759
0.0005707
0.000567839
0.000580615
0.000610474
0.000659189
0.000732379
0.000837513
0.000986317
0.00119619
0.0014924
0.00190889
0.0024841
0.00324363
0.00415891
0.00508536
0.00571296
0.00599477
0.0061132
0.00600917
0.00396347
0.00998429
0.0074553
0.00672014
0.00528569
0.00341528
0.00207138
0.00147981
0.001215
0.00108725
0.0010092
0.000941976
0.000877562
0.000806154
0.000733854
0.00066424
0.000600913
0.000546495
0.000502041
0.000468086
0.000445335
0.000434432
0.00043114
0.000439412
0.000463013
0.000501899
0.000561163
0.000647181
0.000770399
0.000947103
0.00120269
0.00157533
0.00211737
0.00288632
0.00390906
0.00510385
0.00601752
0.00636008
0.00644984
0.00635447
0.00490751
0.00997056
0.00743406
0.00652969
0.0047412
0.00278347
0.00173696
0.0012891
0.00108657
0.000986177
0.000912765
0.000842201
0.000769648
0.000692232
0.000617182
0.000547778
0.000486999
0.000436207
0.000395598
0.000364954
0.000344183
0.000334057
0.000330757
0.000336201
0.000354896
0.000386167
0.00043425
0.000504534
0.00060591
0.000752685
0.000968255
0.00129053
0.00177797
0.0025098
0.00356309
0.00494105
0.00628868
0.006835
0.00692431
0.0066443
0.00579128
0.0098458
0.00731622
0.0061813
0.00419248
0.00235072
0.0015094
0.00115177
0.000988233
0.000901981
0.000828111
0.000753228
0.000675271
0.000595778
0.000521484
0.000455078
0.000398567
0.000352313
0.000315902
0.000288659
0.000270043
0.000260854
0.00025773
0.000261412
0.000276361
0.000301867
0.000341335
0.000399347
0.000483399
0.000605786
0.00078728
0.00106351
0.00149441
0.00217271
0.00321275
0.00467613
0.00641143
0.00733232
0.0074772
0.0070908
0.00660705
0.00954819
0.00705805
0.00577332
0.00371399
0.00205602
0.00134706
0.00104807
0.000910255
0.000830361
0.000754531
0.000676247
0.000595741
0.000516884
0.000445324
0.000383085
0.000331231
0.000289449
0.00025693
0.000232757
0.000216146
0.000207864
0.000204979
0.000207566
0.000219658
0.000240771
0.000273621
0.00032213
0.000392618
0.000495481
0.000648551
0.000883606
0.00125801
0.0018713
0.00287339
0.00441362
0.00643842
0.00784388
0.00810242
0.00757933
0.00740375
0.0090372
0.00674559
0.00535948
0.00332894
0.00184636
0.00122776
0.000967993
0.000847056
0.000769585
0.000691944
0.000611692
0.000530815
0.00045412
0.000386124
0.000328225
0.000280743
0.000242937
0.000213771
0.000192206
0.000177379
0.000169868
0.000167225
0.000169138
0.000179043
0.000196775
0.000224538
0.000265747
0.000325855
0.00041377
0.000544773
0.000746592
0.00107154
0.00161767
0.00255241
0.00409421
0.00634181
0.00832098
0.00880876
0.00817223
0.00817651
0.00845298
0.00640358
0.00496579
0.00302988
0.00169489
0.00113859
0.000905417
0.000795463
0.00071874
0.000640061
0.000559171
0.000479303
0.000405434
0.000341111
0.000287214
0.000243532
0.000209073
0.000182677
0.000163256
0.000149921
0.00014303
0.000140597
0.000142099
0.000150324
0.000165412
0.000189202
0.000224707
0.000276731
0.000353032
0.000466799
0.000642036
0.000925439
0.00141044
0.00227407
0.00378799
0.00616737
0.00874454
0.00958334
0.00880315
0.00894397
0.0077547
0.00608029
0.00461623
0.00280443
0.00158597
0.00107252
0.000856764
0.00075364
0.000677163
0.000598266
0.000517755
0.000439667
0.000368746
0.000307803
0.000257336
0.000216795
0.000185045
0.000160863
0.000143145
0.000130999
0.000124562
0.000122282
0.000123529
0.000130469
0.000143485
0.000164166
0.000195197
0.000240912
0.000308247
0.000408821
0.000563517
0.000813295
0.00124383
0.00203219
0.00349116
0.00595373
0.00908017
0.0103984
0.00956646
0.0097046
0.00707426
0.00576596
0.00431363
0.00264064
0.00151193
0.00102385
0.000819218
0.000720103
0.000643926
0.00056566
0.000486305
0.000410286
0.000342106
0.000284089
0.000236447
0.00019841
0.000168768
0.00014629
0.000129877
0.000118638
0.000112481
0.000110269
0.000111328
0.000117293
0.000128697
0.000146953
0.000174454
0.000215187
0.000275482
0.000365848
0.000504792
0.000728307
0.00111375
0.00183259
0.00322521
0.00573993
0.00932814
0.0112457
0.0104011
0.0104596
0.00627255
0.00548537
0.00406736
0.00252742
0.00146404
0.000991984
0.000791643
0.000694052
0.000618444
0.000541335
0.000463544
0.000389798
0.000324166
0.000268553
0.000223051
0.000186837
0.000158736
0.000137511
0.000122054
0.000111475
0.000105451
0.000103232
0.000104278
0.000109578
0.000119689
0.000135894
0.000160567
0.000197382
0.000252135
0.000334584
0.000461533
0.00066483
0.00101334
0.00166844
0.00298587
0.00553271
0.00948492
0.0121249
0.0113541
0.0112129
0.00561833
0.00524819
0.0038698
0.00245497
0.00144719
0.000971407
0.000772351
0.000674389
0.000599308
0.000524111
0.000448609
0.000376897
0.00031311
0.000259279
0.000215474
0.000180874
0.000154055
0.000133744
0.000118886
0.00010866
0.000102577
0.000100214
0.000101397
0.000106226
0.000115508
0.00013043
0.000152976
0.000186422
0.000236378
0.000312655
0.000430531
0.00061876
0.000938533
0.00153876
0.00277759
0.00531536
0.00959815
0.01302
0.0124131
0.0119563
0.00505878
0.00503075
0.00374425
0.00241996
0.0014553
0.000973358
0.000761506
0.000660882
0.000586684
0.000513422
0.000439704
0.000370601
0.000309507
0.000257684
0.00021521
0.000181146
0.000154566
0.000134388
0.000119587
0.000109348
0.000103113
0.000100505
0.000101376
0.000105611
0.000114339
0.000128546
0.000149893
0.000181302
0.000228189
0.000299204
0.000409598
0.000586842
0.000884852
0.00143913
0.002602
0.00510669
0.00965324
0.0139273
0.0135962
0.0126963
0.00456105
0.00484766
0.00366617
0.00242684
0.00148139
0.000985141
0.000762901
0.000653071
0.00057798
0.000507518
0.00043803
0.000371321
0.000311162
0.000259913
0.00021779
0.000184064
0.000157706
0.000137634
0.00012287
0.000112625
0.000106352
0.000103802
0.00010455
0.000108212
0.000116163
0.000129361
0.000149511
0.000179788
0.000225109
0.000292976
0.000399021
0.000568638
0.000850387
0.001367
0.00245921
0.00491114
0.00967702
0.0148668
0.014881
0.0134201
0.00410695
0.00470496
0.00365239
0.00245664
0.00153609
0.00101294
0.000770828
0.000653967
0.000576627
0.000507947
0.000440012
0.000375032
0.000316296
0.000265985
0.000224424
0.000191051
0.000164847
0.000144773
0.000129906
0.000119493
0.000112993
0.000110215
0.00011088
0.000114224
0.000121741
0.000134516
0.00015386
0.000182482
0.000225165
0.000291226
0.000395067
0.000560668
0.000833766
0.00132085
0.00235019
0.0047338
0.0096812
0.0158126
0.0162833
0.0141322
0.00368023
0.00459457
0.00366968
0.0025239
0.00161909
0.00106596
0.000789987
0.000659501
0.000578816
0.000510789
0.000445345
0.000383235
0.0003267
0.000277471
0.000236262
0.000202827
0.000176357
0.000155923
0.000140662
0.000129856
0.000122976
0.000119899
0.000120506
0.000123664
0.000130912
0.000143503
0.000162543
0.000190654
0.000232404
0.000295886
0.00039596
0.000559015
0.000828278
0.00129883
0.00227232
0.00458355
0.00967243
0.0167529
0.0178092
0.0148192
0.003275
0.004517
0.00371815
0.00262819
0.00173081
0.00114386
0.000828495
0.000673468
0.000585382
0.000517406
0.000455043
0.000395677
0.000341096
0.000292984
0.000252179
0.000218659
0.000191843
0.000170947
0.000155196
0.000143929
0.000136628
0.000133219
0.000133791
0.000136861
0.000143993
0.000156599
0.000175627
0.000203603
0.00024498
0.00030799
0.000407648
0.000569446
0.000834478
0.00129234
0.00222855
0.00446163
0.00966202
0.0176804
0.019458
0.0154831
0.00287766
0.00445158
0.00380427
0.00276772
0.00187739
0.00125192
0.000889329
0.000701973
0.000599357
0.000528723
0.000467908
0.000411198
0.000358831
0.000312121
0.000271952
0.000238501
0.000211414
0.000190081
0.000173846
0.000162126
0.000154429
0.000150706
0.000151275
0.000154347
0.000161515
0.000174327
0.000193624
0.000221895
0.000263549
0.000326806
0.000426844
0.000590303
0.000858186
0.00130582
0.00221133
0.00436544
0.00965748
0.0186163
0.0212126
0.0161114
0.00248798
0.0043963
0.00391903
0.00292468
0.00205314
0.00139475
0.000979977
0.000750939
0.000625635
0.000546426
0.000484569
0.000429635
0.000379452
0.000334431
0.000295257
0.000262201
0.000235098
0.000213519
0.000196938
0.000184882
0.000176889
0.000172967
0.000173583
0.000176757
0.000184128
0.000197333
0.000217159
0.00024613
0.000288699
0.000353255
0.000455208
0.000621941
0.000894862
0.00134299
0.00221058
0.00429635
0.00962095
0.0195439
0.0230467
0.016707
0.00208979
0.00429536
0.00400457
0.00313034
0.00226004
0.00157364
0.00110564
0.000826689
0.00066909
0.000574116
0.00050692
0.000451701
0.00040301
0.00035968
0.000321804
0.000289541
0.000262811
0.000241326
0.000224683
0.000212538
0.000204438
0.000200564
0.000201301
0.000204702
0.000212475
0.000226264
0.000246886
0.000276979
0.000321135
0.000388077
0.000493443
0.000665519
0.00094649
0.00140167
0.00224799
0.00426517
0.00958161
0.020442
0.0249081
0.0172589
0.00172748
0.00416526
0.00404626
0.00335483
0.0024958
0.00179312
0.00127656
0.000941337
0.000740345
0.000619389
0.000539654
0.00047989
0.000430567
0.000388123
0.000351462
0.000320262
0.000294313
0.000273361
0.000257058
0.000245206
0.00023727
0.000233832
0.000234799
0.000238593
0.000247026
0.000261629
0.000283353
0.000315073
0.000361595
0.000432199
0.000542684
0.000722328
0.00101374
0.00148211
0.00231103
0.00425705
0.00954305
0.0212506
0.0267129
0.0177756
0.00142247
0.00389466
0.0040864
0.00357052
0.00273646
0.00203916
0.00149183
0.00110415
0.000852347
0.000694439
0.000592385
0.000521006
0.000466556
0.000422437
0.000385719
0.0003551
0.000329897
0.000309688
0.000294022
0.000282839
0.000275327
0.000272794
0.000274125
0.00027853
0.00028796
0.000303695
0.000326947
0.000360997
0.000410889
0.000486762
0.000604342
0.000794298
0.00109871
0.00158728
0.00240942
0.00429689
0.00952675
0.0219777
0.0283881
0.0182545
0.00115012
0.00334124
0.00415088
0.00377808
0.00299277
0.00230978
0.0017522
0.00132541
0.00102195
0.000817197
0.000680719
0.000587218
0.000519856
0.000468812
0.000428738
0.000396766
0.000371269
0.00035135
0.000336153
0.000325766
0.000318721
0.000317501
0.000319333
0.000324583
0.000335407
0.000352777
0.000378233
0.00041572
0.000470408
0.000553776
0.000680936
0.000885001
0.00120573
0.00172325
0.00255141
0.00440351
0.00954298
0.0226127
0.0298496
0.0187176
0.000902681
0.00251276
0.00407951
0.00386294
0.00323525
0.0025854
0.00204588
0.00160668
0.00126592
0.00101384
0.000833209
0.000704859
0.000612654
0.000545001
0.000494299
0.000455774
0.000426344
0.000404293
0.000387898
0.000377344
0.000370089
0.000369905
0.000372261
0.000378503
0.000391078
0.000410906
0.000439685
0.000482465
0.000544149
0.000638488
0.000778901
0.00100336
0.00134638
0.00190696
0.00276291
0.00462003
0.00969892
0.0232441
0.0310006
0.0191874
0.000777148
0.00175904
0.00378522
0.0037966
0.0034754
0.00287542
0.00237294
0.00194749
0.00159214
0.00130499
0.00108025
0.000908586
0.000779223
0.000682291
0.000609662
0.000555364
0.000514772
0.000485147
0.000463478
0.000449724
0.000440313
0.000439329
0.000441923
0.000449067
0.000463628
0.00048731
0.000521338
0.000572733
0.000645305
0.000757055
0.000917693
0.00117516
0.001554
0.00218563
0.00311169
0.00504917
0.0101165
0.0239996
0.0317123
0.0194763
0.000808735
0.00136453
0.00310155
0.00358952
0.00348179
0.00316052
0.00274318
0.00236819
0.00202984
0.00172975
0.00147244
0.00125832
0.00108472
0.000946444
0.000838177
0.00075408
0.000689457
0.000640616
0.000604735
0.000580383
0.000564133
0.000557304
0.0005593
0.000566795
0.000583115
0.000613333
0.00065692
0.000724402
0.000817095
0.000961264
0.00115935
0.00147974
0.00192864
0.00269477
0.00378218
0.0059629
0.0111625
0.0251506
0.0320009
0.0195789
0.00115794
0.00121627
0.00233497
0.00310979
0.00343507
0.00337112
0.00316896
0.00288064
0.00259074
0.00230835
0.00204063
0.0017969
0.0015822
0.001399
0.00124468
0.00112228
0.00102561
0.000950527
0.000892996
0.000851564
0.000823962
0.000809572
0.000811793
0.000822534
0.000846632
0.000893538
0.000961794
0.0010679
0.00120965
0.00142841
0.00171488
0.00217785
0.00279024
0.00384633
0.00529599
0.00800847
0.0134908
0.0270376
0.0319921
0.0194365
0.00188532
0.00142385
0.00217714
0.00306156
0.00360745
0.00385952
0.00387138
0.00376259
0.00353766
0.00327345
0.00299987
0.00273099
0.00248068
0.00225609
0.00206123
0.00189458
0.00175871
0.00165157
0.00157192
0.00151921
0.00148747
0.00148972
0.00150775
0.00155101
0.00162943
0.00174578
0.00190004
0.00212471
0.00241988
0.00284463
0.00338887
0.00422183
0.00526642
0.00700151
0.00915293
0.0131616
0.0186941
0.0303185
0.0318254
0.018825
0.00312835
0.00217693
0.00303931
0.00411458
0.00494948
0.00554977
0.00582223
0.00585699
0.00574254
0.00549626
0.00520586
0.00490235
0.00461425
0.00435308
0.00413356
0.0039558
0.00382805
0.00374077
0.00371839
0.00373807
0.00379815
0.00392281
0.00411321
0.00435865
0.00469416
0.0051019
0.0056414
0.00628065
0.00708959
0.00812859
0.00951798
0.0113236
0.0135751
0.0167028
0.020334
0.026066
0.0310847
0.0362297
0.0326867
0.017686
0.00515854
0.00502794
0.00844252
0.0112673
0.0128539
0.0137074
0.013994
0.0139332
0.0137208
0.0133419
0.0129399
0.012557
0.0122423
0.0120097
0.0118731
0.0118813
0.0119605
0.012146
0.0124806
0.0129302
0.0135247
0.0142236
0.0151042
0.0160979
0.0173507
0.0187052
0.0204597
0.0222586
0.0247122
0.027026
0.030262
0.0331382
0.0373555
0.0407396
0.045771
0.0486023
0.0476035
0.0422011
0.0330749
0.0154082
0.00349977
0.00537166
0.00695395
0.00856733
0.0100521
0.0113922
0.0125438
0.0134698
0.014128
0.0145385
0.014796
0.0148709
0.0148407
0.0147497
0.0145917
0.0143821
0.014156
0.0139358
0.0137062
0.0134982
0.0132994
0.0131314
0.0129846
0.0128716
0.0127918
0.0127462
0.0127541
0.0127875
0.0128786
0.0129789
0.0131993
0.0133881
0.0138351
0.0141811
0.0149613
0.0154689
0.0163214
0.0164018
0.0158476
0.0132376
)
;

boundaryField
{
    movingWall
    {
        type            epsilonWallFunction;
        value           nonuniform List<scalar> 
40
(
0.00349977
0.00537166
0.00695395
0.00856733
0.0100521
0.0113922
0.0125438
0.0134698
0.014128
0.0145385
0.014796
0.0148709
0.0148407
0.0147497
0.0145917
0.0143821
0.014156
0.0139358
0.0137062
0.0134982
0.0132994
0.0131314
0.0129846
0.0128716
0.0127918
0.0127462
0.0127541
0.0127875
0.0128786
0.0129789
0.0131993
0.0133881
0.0138351
0.0141811
0.0149613
0.0154689
0.0163214
0.0164018
0.0158476
0.0132376
)
;
    }
    fixedWalls
    {
        type            epsilonWallFunction;
        value           nonuniform List<scalar> 
120
(
3.04152e-05
0.00014664
0.000442314
0.00100919
0.00189064
0.00314249
0.0047043
0.0063742
0.00779435
0.00883605
0.00958228
0.00998429
0.00997056
0.0098458
0.00954819
0.0090372
0.00845298
0.0077547
0.00707426
0.00627255
0.00561833
0.00505878
0.00456105
0.00410695
0.00368023
0.003275
0.00287766
0.00248798
0.00208979
0.00172748
0.00142247
0.00115012
0.000902681
0.000777148
0.000808735
0.00115794
0.00188532
0.00312835
0.00515854
0.00349977
5.10003e-05
8.52553e-05
6.9856e-05
4.8254e-05
5.53251e-05
0.000102824
0.000231402
0.000579205
0.00156984
0.00279062
0.00396347
0.00490751
0.00579128
0.00660705
0.00740375
0.00817651
0.00894397
0.0097046
0.0104596
0.0112129
0.0119563
0.0126963
0.0134201
0.0141322
0.0148192
0.0154831
0.0161114
0.016707
0.0172589
0.0177756
0.0182545
0.0187176
0.0191874
0.0194763
0.0195789
0.0194365
0.018825
0.017686
0.0154082
0.0132376
3.04152e-05
0.000100758
0.000193208
0.000191437
0.000174354
0.000178589
0.00023162
0.000395633
0.000595477
0.000874056
0.00132808
0.00164031
0.0018027
0.00201091
0.002331
0.00273514
0.00310426
0.00353117
0.00393811
0.00440928
0.00488611
0.00543668
0.00602796
0.00672228
0.00752783
0.00822926
0.00895377
0.00956388
0.0100956
0.0103812
0.0104943
0.0102814
0.00946279
0.0080685
0.00609491
0.00364885
0.00178983
0.000758401
0.000243818
5.10003e-05
)
;
    }
    frontAndBack
    {
        type            empty;
    }
}


// ************************************************************************* //
