/*--------------------------------*- C++ -*----------------------------------*\
  =========                 |
  \\      /  F ield         | OpenFOAM: The Open Source CFD Toolbox
   \\    /   O peration     | Website:  https://openfoam.org
    \\  /    A nd           | Version:  12
     \\/     M anipulation  |
\*---------------------------------------------------------------------------*/
FoamFile
{
    format      ascii;
    class       volScalarField;
    location    "9";
    object      k;
}
// * * * * * * * * * * * * * * * * * * * * * * * * * * * * * * * * * * * * * //

dimensions      [0 2 -2 0 0 0 0];

internalField   nonuniform List<scalar> 
1600
(
2.37694e-06
7.87358e-06
1.50975e-05
1.49588e-05
1.36238e-05
1.39548e-05
1.80989e-05
3.09149e-05
4.65301e-05
6.83023e-05
0.000103773
0.000128165
0.000140853
0.000157125
0.000182138
0.000213716
0.000242557
0.000275912
0.000307707
0.000344521
0.000381776
0.000424793
0.000470991
0.000525239
0.000588178
0.000642978
0.000699583
0.000747249
0.000788794
0.0008111
0.000819943
0.000803304
0.000739345
0.000630412
0.000476216
0.000285105
0.000139853
5.92615e-05
1.90525e-05
3.98539e-06
1.14598e-05
5.04295e-05
9.54845e-05
0.000101255
9.81368e-05
0.000105141
0.000149569
0.000256133
0.000358145
0.000496045
0.000702816
0.000800656
0.000822569
0.000825509
0.000826482
0.000865952
0.000885025
0.000930439
0.000962778
0.00101426
0.00106104
0.00111955
0.00117553
0.001234
0.00128707
0.0013558
0.0014208
0.00149155
0.00155033
0.00158491
0.00159709
0.00156114
0.00145269
0.00125715
0.000993968
0.000617115
0.000280922
0.000117741
4.15139e-05
6.66215e-06
3.4566e-05
0.0001325
0.000205393
0.000218191
0.000237598
0.000313589
0.000521784
0.000843644
0.0010919
0.00117602
0.00110738
0.000996151
0.000943294
0.000925029
0.00092061
0.000926414
0.000936975
0.000955923
0.000976047
0.0010044
0.00102969
0.00105836
0.00108769
0.00112154
0.0011575
0.00119699
0.00123724
0.00127931
0.00131997
0.00135859
0.00138006
0.00138837
0.00137187
0.00126145
0.00107575
0.000697726
0.000262959
9.71224e-05
3.73493e-05
5.45881e-06
7.88645e-05
0.00027205
0.000372165
0.000413522
0.000516697
0.00076019
0.00111075
0.00128645
0.00130722
0.0011565
0.00104365
0.000960044
0.000924239
0.000909999
0.000905182
0.00090513
0.000910666
0.000920421
0.000931399
0.000945813
0.00096211
0.000982983
0.00100396
0.00102786
0.00105235
0.00107865
0.00110582
0.0011338
0.00116071
0.00118555
0.00120311
0.0012114
0.00121328
0.0011917
0.00113127
0.000955207
0.000422662
0.000102005
2.79126e-05
3.77068e-06
0.000147742
0.000473916
0.000610134
0.000706074
0.000910721
0.00121475
0.00136112
0.00136645
0.00122742
0.00103666
0.000943232
0.000898319
0.000877236
0.000867362
0.000863816
0.000864655
0.000876774
0.000888919
0.000905557
0.000922487
0.000940815
0.000959094
0.000977814
0.000997536
0.00101871
0.00104206
0.00106768
0.00109508
0.00112214
0.00114413
0.00115929
0.00116662
0.00116898
0.00116098
0.00113241
0.00106219
0.000804053
0.000223537
3.82187e-05
4.32299e-06
0.000245562
0.000722366
0.000896064
0.00103229
0.00125326
0.00137779
0.00138666
0.00127034
0.00103475
0.000920486
0.000867367
0.000842669
0.000832431
0.000829715
0.000834583
0.000847274
0.000862867
0.000878434
0.000894908
0.000910999
0.000927538
0.000944019
0.000961642
0.000980709
0.00100244
0.00102735
0.00105598
0.00108822
0.0011232
0.00115876
0.00117802
0.00118303
0.00118055
0.00116631
0.00113605
0.00108378
0.000948561
0.00046276
8.2438e-05
8.03385e-06
0.000367597
0.000977986
0.00118146
0.00129832
0.00138573
0.00139705
0.00130074
0.00105458
0.000907399
0.000843268
0.000815198
0.00080444
0.000801997
0.000807948
0.000820068
0.00083311
0.000845507
0.000857103
0.000868275
0.000878247
0.000888796
0.000901208
0.000916793
0.000936438
0.000960892
0.00099117
0.00102777
0.00107072
0.00111895
0.00116968
0.00122201
0.00125942
0.00126804
0.0012589
0.00121496
0.00112847
0.000999267
0.000721056
0.000166573
1.80794e-05
0.000498076
0.00123031
0.00140622
0.00144173
0.00143308
0.00133341
0.00110837
0.000912592
0.000828573
0.000793731
0.0007807
0.000777564
0.000780953
0.000790486
0.000798548
0.000804898
0.000808887
0.000811087
0.00081279
0.000815553
0.000820862
0.000829699
0.000843208
0.000862373
0.000888275
0.000922069
0.000964796
0.0010173
0.00107963
0.00115
0.00122321
0.00129088
0.00133442
0.00134233
0.00133009
0.0012558
0.00109147
0.000822758
0.000284608
4.52527e-05
0.000609035
0.00143302
0.00156862
0.00153238
0.00139763
0.00119032
0.000945725
0.00082822
0.000779398
0.000760859
0.000755386
0.000754921
0.00075958
0.000761855
0.000762172
0.000758364
0.00075263
0.000746362
0.000741885
0.000740059
0.000740076
0.000746472
0.000757976
0.000776262
0.000802116
0.000836824
0.000881776
0.00093862
0.00100893
0.00109339
0.00118996
0.00129064
0.00137346
0.00141159
0.00141483
0.00137676
0.00124358
0.000973978
0.00051659
0.000122651
0.000690426
0.00156941
0.0016714
0.00153078
0.0013093
0.00103231
0.000852203
0.000776334
0.000746138
0.000735087
0.000731556
0.000730504
0.000729543
0.000723357
0.000713879
0.000701275
0.000688305
0.000676366
0.000667036
0.000662271
0.000660696
0.000664246
0.000674794
0.000691991
0.000717131
0.00075123
0.000795815
0.00085282
0.00092472
0.00101419
0.00112297
0.00124901
0.00138117
0.00147084
0.00149736
0.00148096
0.00136671
0.00109415
0.000628607
0.000218032
0.00074873
0.00165989
0.00173364
0.0015023
0.00118835
0.000920591
0.000793796
0.00074091
0.000719532
0.000710699
0.000706506
0.000701217
0.000692124
0.000677522
0.000660212
0.000641511
0.000623886
0.000608532
0.000596668
0.000590212
0.00058781
0.000589424
0.000599215
0.000615366
0.000639535
0.000672532
0.000715854
0.000771418
0.000841937
0.000930976
0.0010425
0.0011789
0.00133603
0.00149402
0.00157521
0.00158732
0.00151537
0.00125656
0.000773381
0.000309666
0.000780139
0.00169355
0.00173529
0.00144009
0.00107634
0.000850516
0.000753278
0.000712517
0.000695039
0.000686658
0.000679106
0.000667497
0.000650729
0.000629527
0.00060688
0.000584441
0.000564145
0.000546943
0.000533718
0.000526138
0.000523165
0.000523391
0.000532185
0.000547273
0.000570274
0.00060199
0.000643824
0.000697585
0.000765933
0.000852761
0.000963448
0.00110409
0.00127793
0.00147645
0.00162581
0.00167002
0.00163173
0.00138856
0.000891774
0.000383423
0.000779066
0.0016897
0.00171846
0.00136362
0.000986298
0.000801033
0.0007217
0.000687608
0.000671987
0.000662099
0.000649715
0.000631865
0.000609068
0.000583319
0.000557385
0.00053284
0.000511108
0.000492908
0.000478866
0.00047022
0.000466527
0.000466091
0.000473436
0.000487396
0.000509073
0.000539387
0.000579655
0.000631557
0.000697507
0.000781161
0.000888092
0.00102605
0.0012031
0.00142012
0.00164721
0.00175486
0.0017563
0.00154196
0.00101213
0.000452472
0.000769318
0.00166946
0.00167813
0.0012824
0.000923994
0.000763624
0.000695211
0.000664863
0.000650025
0.000637244
0.000619942
0.00059692
0.000569854
0.000541222
0.000513405
0.000487743
0.000465254
0.000446478
0.000431862
0.00042226
0.000417879
0.000416977
0.000422809
0.000435533
0.000455779
0.000484578
0.000523237
0.00057339
0.00063728
0.000718287
0.000821846
0.000956528
0.00113398
0.00136389
0.00163764
0.00182462
0.00185858
0.00168025
0.00113195
0.000516206
0.000746064
0.0016251
0.00161758
0.00121063
0.000877669
0.000733447
0.000672047
0.000644322
0.000629113
0.000613039
0.000591465
0.000564558
0.00053467
0.000504322
0.000475504
0.000449303
0.000426454
0.000407367
0.000392376
0.000382016
0.000377051
0.000375747
0.000380218
0.000391617
0.000410336
0.000437461
0.000474345
0.000522637
0.000584472
0.000662903
0.000762842
0.000892573
0.00106511
0.00129598
0.00159002
0.001868
0.00196063
0.00182376
0.00125249
0.000578451
0.000706139
0.00156846
0.00154994
0.00115075
0.000841528
0.000708448
0.000651834
0.000625963
0.000609612
0.000590482
0.000565532
0.000535896
0.000504243
0.000472955
0.000443684
0.00041731
0.000394379
0.000375209
0.000360061
0.000349191
0.000343763
0.000342129
0.000345471
0.000355526
0.000372647
0.00039795
0.000432871
0.00047916
0.000538976
0.000615209
0.000712342
0.00083819
0.00100636
0.00123641
0.001542
0.0018856
0.00204672
0.00195992
0.00137633
0.000638825
0.000660493
0.00150371
0.00148028
0.00110181
0.00081298
0.0006876
0.000634377
0.00060971
0.000591968
0.000570319
0.000542888
0.000511449
0.000478775
0.000447057
0.00041769
0.000391398
0.000368603
0.00034955
0.000334431
0.000323421
0.000317587
0.00031568
0.000318141
0.000326901
0.000342398
0.000365771
0.000398544
0.000442605
0.000500236
0.000574266
0.000668744
0.000790634
0.000953124
0.00117888
0.00149369
0.00188791
0.00212784
0.00209338
0.00150042
0.000698784
0.000605935
0.00144075
0.00141361
0.0010627
0.000790894
0.000670625
0.000619578
0.000595537
0.000576498
0.000552974
0.000523865
0.000491338
0.000458163
0.000426362
0.000397147
0.000371131
0.000348648
0.000329886
0.000314977
0.000304037
0.000297891
0.000295752
0.000297549
0.000305124
0.000319037
0.000340452
0.000370967
0.000412625
0.000467934
0.000539835
0.000632164
0.000751057
0.000908499
0.00112756
0.00144176
0.00186367
0.00219794
0.00222168
0.00163277
0.00075821
0.000552772
0.00137502
0.00135153
0.00103256
0.000774685
0.000656818
0.00060713
0.000583388
0.00056336
0.000538604
0.000508509
0.000475458
0.000442164
0.000410523
0.000381631
0.000356026
0.000333981
0.000315632
0.000301058
0.000290315
0.000283935
0.000281566
0.000282867
0.000289395
0.000301828
0.000321349
0.000349598
0.000388742
0.000441569
0.000511251
0.000601608
0.000718073
0.000871249
0.00108369
0.00139424
0.00183294
0.0022588
0.00234615
0.00176621
0.000817196
0.000490132
0.00131935
0.0012962
0.00100981
0.000763812
0.000646859
0.000597121
0.000573164
0.000552492
0.000527135
0.000496672
0.000463539
0.000430409
0.000399117
0.000370675
0.000345573
0.000324039
0.000306168
0.000291992
0.000281516
0.00027498
0.000272341
0.000273234
0.000278857
0.00028996
0.00030775
0.000333849
0.000370476
0.000420754
0.00048816
0.000576738
0.000691395
0.000841162
0.00104701
0.00135094
0.00179855
0.00230173
0.00246818
0.00190804
0.000876049
0.000439015
0.00125902
0.00124872
0.000993897
0.000759378
0.000639232
0.000589012
0.000564746
0.000543806
0.000518395
0.000488083
0.000455304
0.000422623
0.000391787
0.000363835
0.000339266
0.000318277
0.000300914
0.000287151
0.000276954
0.000270375
0.000267484
0.000268298
0.000273265
0.000283248
0.00029934
0.000323136
0.000357339
0.000405104
0.000470173
0.00055707
0.000670412
0.000817684
0.00101764
0.00131395
0.00176678
0.00233272
0.00258777
0.00205251
0.000934128
0.000395294
0.00119681
0.00120368
0.000986993
0.000761183
0.000637567
0.000583365
0.000557861
0.000536914
0.000512013
0.000482418
0.000450244
0.000418097
0.000387998
0.000360861
0.000337022
0.000316636
0.000299719
0.000286231
0.000276131
0.000269448
0.000266312
0.000266958
0.000271347
0.000280637
0.00029556
0.000317759
0.000349602
0.00039443
0.000457056
0.000542367
0.000654815
0.000800413
0.000995039
0.00128229
0.00173722
0.0023504
0.00270482
0.00220484
0.000991942
0.000356404
0.00113551
0.00116352
0.000987769
0.000767407
0.00063949
0.000580197
0.000552885
0.000531832
0.00050774
0.000479156
0.000448326
0.00041757
0.000388246
0.000361478
0.00033793
0.0003178
0.000301111
0.000287816
0.000277869
0.000271281
0.00026817
0.000268625
0.000272235
0.00028053
0.000294665
0.000315922
0.000346351
0.000389192
0.000449529
0.00053295
0.000644841
0.00078985
0.000979254
0.00125648
0.0017092
0.00236069
0.00281973
0.00236123
0.00104848
0.000320922
0.00107634
0.00112755
0.000991183
0.000781033
0.00064544
0.000580851
0.000549115
0.000527999
0.000505077
0.000478287
0.000448852
0.000418822
0.000390175
0.000364033
0.000340993
0.000321328
0.000305058
0.000292109
0.000282413
0.00027596
0.000272892
0.000273315
0.000276506
0.000284077
0.000297212
0.00031699
0.000345856
0.000387479
0.000446482
0.00052861
0.000640196
0.000785115
0.000971384
0.00123651
0.00168224
0.00236513
0.00293109
0.00252405
0.00110412
0.000287579
0.00101864
0.00109639
0.000999067
0.000799407
0.000657843
0.000584148
0.000549075
0.000525726
0.000503791
0.000478775
0.000450687
0.000422057
0.000394604
0.000369456
0.0003472
0.000328085
0.000312191
0.000299501
0.00028996
0.000283554
0.000280483
0.000280926
0.000283916
0.000291061
0.000303654
0.000322599
0.000350052
0.000389457
0.000446252
0.000527524
0.000638948
0.000783967
0.000968561
0.00122273
0.00165766
0.00236622
0.0030396
0.00269132
0.00115779
0.000255916
0.000962929
0.00106927
0.00100518
0.000828675
0.000677977
0.000592003
0.000550797
0.000525947
0.00050412
0.000480259
0.000454383
0.000427547
0.000401452
0.000377315
0.000355822
0.000337294
0.000321843
0.000309477
0.000300163
0.000293884
0.000290931
0.000291455
0.000294411
0.000301374
0.000313659
0.000332075
0.000358713
0.000396995
0.000452297
0.000531975
0.000643174
0.000788813
0.000970393
0.00121602
0.00163515
0.00236264
0.00314214
0.00286374
0.00120966
0.000224868
0.000906004
0.00104551
0.00100658
0.000863467
0.000707453
0.000607985
0.000556183
0.000527717
0.000505454
0.000483111
0.000459205
0.000434349
0.0004099
0.000387037
0.000366517
0.000348739
0.000333871
0.000321959
0.000313006
0.000306974
0.000304315
0.000304986
0.000308051
0.000315067
0.000327252
0.000345393
0.000371513
0.000408981
0.00046324
0.000542066
0.000653128
0.000799411
0.000979618
0.00121382
0.00161485
0.00235643
0.00324067
0.00303714
0.00125874
0.000194418
0.00084874
0.00102125
0.00100456
0.000901394
0.000744186
0.000632704
0.000567869
0.000532674
0.000508588
0.000487041
0.000464923
0.000442113
0.000419538
0.000398228
0.00037895
0.000362162
0.000348095
0.000336836
0.000328444
0.000322817
0.000320703
0.000321592
0.000324905
0.000332203
0.000344483
0.000362585
0.000388494
0.000425555
0.000479173
0.000557289
0.000667991
0.0008144
0.000992722
0.00121525
0.00159587
0.00234056
0.00333438
0.00321103
0.00130527
0.000163303
0.00078473
0.000999085
0.000998422
0.000935825
0.000791653
0.000668373
0.000589421
0.000543416
0.000515031
0.000492684
0.000471634
0.000450642
0.00043001
0.000410478
0.000392726
0.000377221
0.000364236
0.000353889
0.000346321
0.000341291
0.000340035
0.000341222
0.000344919
0.00035273
0.000365286
0.000383567
0.000409545
0.000446575
0.00049996
0.000577622
0.00068768
0.000833492
0.00100963
0.00122151
0.0015797
0.00231692
0.00342024
0.00337829
0.00134839
0.000134989
0.000724671
0.000974137
0.000990499
0.000954543
0.000844678
0.00071644
0.000623523
0.000564704
0.00052805
0.00050223
0.000480608
0.000460554
0.000441494
0.00042369
0.000407595
0.000393594
0.000381953
0.000372785
0.0003663
0.000362119
0.000361992
0.000363559
0.000367806
0.000376368
0.000389362
0.000408026
0.000434332
0.000471682
0.000525174
0.000602499
0.000711361
0.000855356
0.00102811
0.00122882
0.00156417
0.00228534
0.00349248
0.00353436
0.00138876
0.000111153
0.000658733
0.000956428
0.000982896
0.000963258
0.000893192
0.000773786
0.000672286
0.000600016
0.000552106
0.000519319
0.000494436
0.00047353
0.000454976
0.000438343
0.000423684
0.000411177
0.000400969
0.000393189
0.000387835
0.000385143
0.000385658
0.000387963
0.00039322
0.00040251
0.000416096
0.000435347
0.00046222
0.00050019
0.000553981
0.000630883
0.000737692
0.000878257
0.00104613
0.00123578
0.00154922
0.0022506
0.00354869
0.00366933
0.00142617
8.98685e-05
0.000575142
0.00094838
0.000981479
0.000969285
0.000927063
0.000834422
0.000735625
0.000654384
0.000594343
0.000551261
0.000519401
0.000494499
0.0004741
0.00045701
0.000442713
0.000431051
0.000421849
0.000415326
0.00041086
0.000409846
0.000410891
0.000413967
0.000420358
0.00043042
0.000444715
0.000464737
0.000492356
0.000531116
0.000585133
0.000661183
0.00076472
0.000899973
0.00106134
0.00124089
0.00153763
0.00221949
0.00358728
0.00377223
0.00146235
7.05319e-05
0.000475733
0.000927778
0.000982279
0.000976624
0.000952731
0.000892896
0.000807625
0.000727127
0.000659427
0.000605885
0.000564331
0.000531892
0.00050624
0.000485821
0.000469593
0.000457065
0.000447544
0.000441357
0.000437086
0.000437086
0.000438478
0.000442114
0.000449312
0.000460041
0.000475012
0.000495843
0.000524188
0.000563631
0.000617392
0.000691759
0.000790613
0.000918872
0.0010729
0.00124551
0.00153298
0.0022052
0.00361247
0.00382253
0.00149906
6.07221e-05
0.000393066
0.000876326
0.000976865
0.000980577
0.000973106
0.000946947
0.000889594
0.000819228
0.000751978
0.000692294
0.000641593
0.000599605
0.000565367
0.000537908
0.000516169
0.000499576
0.000487063
0.000478798
0.000473176
0.000471906
0.000473017
0.000476316
0.000483137
0.00049399
0.000509185
0.000530452
0.000559078
0.000598655
0.000651305
0.000723031
0.000816325
0.000937273
0.00108583
0.0012595
0.00154538
0.00220411
0.00363783
0.00384117
0.00152162
6.31919e-05
0.000364525
0.000776445
0.000950954
0.000986076
0.000996085
0.000991916
0.00097267
0.000929663
0.000872705
0.000814804
0.000760028
0.000710609
0.000667496
0.000631002
0.00060079
0.000576546
0.000557538
0.00054338
0.000533515
0.000527178
0.000525717
0.000527153
0.000531539
0.000540762
0.000555088
0.000575998
0.000604264
0.000643449
0.0006947
0.000764058
0.000853581
0.000970891
0.00112226
0.00131241
0.00162485
0.00228848
0.00368272
0.00382586
0.00152963
9.04817e-05
0.000390189
0.000686102
0.000894426
0.000997175
0.00104405
0.00106714
0.00106839
0.00105738
0.00102849
0.000982021
0.00093069
0.000879021
0.000829743
0.000784823
0.000744913
0.000710526
0.000681466
0.000657949
0.000639234
0.000626097
0.000616839
0.000614495
0.000616528
0.000622629
0.000635293
0.000656139
0.000685141
0.000725924
0.00077941
0.000852012
0.000947315
0.00107428
0.00124891
0.00147952
0.00185397
0.00251401
0.00374992
0.00371821
0.00151849
0.000147325
0.00049011
0.000704891
0.000917457
0.00105962
0.00115847
0.00122178
0.00125121
0.00125769
0.00124857
0.00122339
0.00117952
0.00112827
0.0010741
0.00102064
0.000970191
0.000924689
0.000884644
0.000851478
0.000825007
0.000807106
0.000794563
0.00079135
0.000794141
0.000802486
0.000819816
0.000847873
0.000887094
0.000942066
0.00101394
0.00111105
0.00123861
0.00140779
0.00164047
0.00194274
0.00240181
0.00302675
0.00387629
0.00361446
0.00147067
0.000244454
0.000688903
0.000883643
0.00111975
0.00130847
0.00145683
0.00155613
0.00160724
0.001613
0.00160356
0.00157924
0.00153673
0.00148768
0.00143547
0.00138621
0.00133984
0.00130066
0.00126875
0.0012456
0.00122816
0.00122345
0.00122715
0.00123846
0.00126213
0.00129919
0.00134862
0.00141613
0.00149751
0.00160373
0.00173268
0.00190572
0.00210944
0.00237534
0.0026901
0.00308584
0.0035807
0.00401207
0.00414888
0.00348175
0.00138156
0.000403074
0.00113704
0.00156171
0.00195582
0.00219775
0.00234934
0.00243282
0.00246352
0.00245425
0.00243179
0.002402
0.00236641
0.0023332
0.00230034
0.00228022
0.00226126
0.00226181
0.00226881
0.00228605
0.00231826
0.00236314
0.00242257
0.00249676
0.00258614
0.00269494
0.00281835
0.00297013
0.00313034
0.00333859
0.00353337
0.00380374
0.00402698
0.00437155
0.00459259
0.00500321
0.00509268
0.00495391
0.00434623
0.00304416
0.00120358
0.000273462
0.00041972
0.000543352
0.000669409
0.000785424
0.000890137
0.000980119
0.00105247
0.0011039
0.00113598
0.0011561
0.00116195
0.00115959
0.00115247
0.00114013
0.00112375
0.00110608
0.00108887
0.00107093
0.00105467
0.00103913
0.00102599
0.00101452
0.00100567
0.000999439
0.000995855
0.000996472
0.000999072
0.00100617
0.00101409
0.00103107
0.00104608
0.00108077
0.00110795
0.00116882
0.00120847
0.00127515
0.00128137
0.0012381
0.00103423
)
;

boundaryField
{
    movingWall
    {
        type            kqRWallFunction;
        value           nonuniform List<scalar> 
40
(
0.000273462
0.00041972
0.000543352
0.000669409
0.000785424
0.000890137
0.000980119
0.00105247
0.0011039
0.00113598
0.0011561
0.00116195
0.00115959
0.00115247
0.00114013
0.00112375
0.00110608
0.00108887
0.00107093
0.00105467
0.00103913
0.00102599
0.00101452
0.00100567
0.000999439
0.000995855
0.000996472
0.000999072
0.00100617
0.00101409
0.00103107
0.00104608
0.00108077
0.00110795
0.00116882
0.00120847
0.00127515
0.00128137
0.0012381
0.00103423
)
;
    }
    fixedWalls
    {
        type            kqRWallFunction;
        value           nonuniform List<scalar> 
120
(
2.37694e-06
1.14598e-05
3.4566e-05
7.88645e-05
0.000147742
0.000245562
0.000367597
0.000498076
0.000609035
0.000690426
0.00074873
0.000780139
0.000779066
0.000769318
0.000746064
0.000706139
0.000660493
0.000605935
0.000552772
0.000490132
0.000439015
0.000395294
0.000356404
0.000320922
0.000287579
0.000255916
0.000224868
0.000194418
0.000163303
0.000134989
0.000111153
8.98685e-05
7.05319e-05
6.07221e-05
6.31919e-05
9.04817e-05
0.000147325
0.000244454
0.000403074
0.000273462
3.98539e-06
6.66215e-06
5.45881e-06
3.77068e-06
4.32299e-06
8.03385e-06
1.80794e-05
4.52527e-05
0.000122651
0.000218032
0.000309666
0.000383423
0.000452472
0.000516206
0.000578451
0.000638825
0.000698784
0.00075821
0.000817196
0.000876049
0.000934128
0.000991942
0.00104848
0.00110412
0.00115779
0.00120966
0.00125874
0.00130527
0.00134839
0.00138876
0.00142617
0.00146235
0.00149906
0.00152162
0.00152963
0.00151849
0.00147067
0.00138156
0.00120358
0.00103423
2.37694e-06
7.87358e-06
1.50975e-05
1.49588e-05
1.36238e-05
1.39548e-05
1.80989e-05
3.09149e-05
4.65301e-05
6.83023e-05
0.000103773
0.000128165
0.000140853
0.000157125
0.000182138
0.000213716
0.000242557
0.000275912
0.000307707
0.000344521
0.000381776
0.000424793
0.000470991
0.000525239
0.000588178
0.000642978
0.000699583
0.000747249
0.000788794
0.0008111
0.000819943
0.000803304
0.000739345
0.000630412
0.000476216
0.000285105
0.000139853
5.92615e-05
1.90525e-05
3.98539e-06
)
;
    }
    frontAndBack
    {
        type            empty;
    }
}


// ************************************************************************* //
