/*--------------------------------*- C++ -*----------------------------------*\
  =========                 |
  \\      /  F ield         | OpenFOAM: The Open Source CFD Toolbox
   \\    /   O peration     | Website:  https://openfoam.org
    \\  /    A nd           | Version:  12
     \\/     M anipulation  |
\*---------------------------------------------------------------------------*/
FoamFile
{
    format      ascii;
    class       volScalarField;
    location    "9";
    object      nut;
}
// * * * * * * * * * * * * * * * * * * * * * * * * * * * * * * * * * * * * * //

dimensions      [0 2 -1 0 0 0 0];

internalField   nonuniform List<scalar> 
1600
(
1.67182e-08
5.53745e-08
1.06175e-07
1.05199e-07
9.58092e-08
9.81373e-08
1.27283e-07
2.17413e-07
3.27224e-07
4.80368e-07
7.29777e-07
9.01267e-07
9.90495e-07
1.10495e-06
1.28086e-06
1.50293e-06
1.70573e-06
1.94029e-06
2.16386e-06
2.42273e-06
2.6847e-06
2.9872e-06
3.31205e-06
3.69351e-06
4.13609e-06
4.52141e-06
4.91944e-06
5.2546e-06
5.54672e-06
5.70355e-06
5.76573e-06
5.64871e-06
5.19897e-06
4.43301e-06
3.34875e-06
2.00491e-06
9.83505e-07
4.16762e-07
1.33993e-07
2.80293e-08
8.06011e-08
1.25227e-06
3.71746e-06
4.40192e-06
4.30159e-06
4.125e-06
4.72618e-06
6.41909e-06
7.00716e-06
8.08176e-06
9.42777e-06
1.03142e-05
1.07698e-05
1.16197e-05
1.24376e-05
1.40757e-05
1.51237e-05
1.68633e-05
1.80854e-05
1.96361e-05
2.08851e-05
2.22675e-05
2.34811e-05
2.45032e-05
2.50502e-05
2.5893e-05
2.6414e-05
2.69083e-05
2.70503e-05
2.67075e-05
2.64398e-05
2.51511e-05
2.33128e-05
2.00966e-05
1.68063e-05
1.1102e-05
5.43233e-06
2.16917e-06
7.39913e-07
4.68543e-08
2.43113e-07
3.40241e-06
8.17808e-06
9.77248e-06
1.02941e-05
1.07397e-05
1.35592e-05
1.72638e-05
1.81843e-05
1.83652e-05
1.68625e-05
1.601e-05
1.5679e-05
1.71436e-05
1.86291e-05
2.04455e-05
2.23643e-05
2.43937e-05
2.61866e-05
2.8091e-05
2.96358e-05
3.09305e-05
3.16237e-05
3.2185e-05
3.25044e-05
3.26844e-05
3.25828e-05
3.22371e-05
3.1538e-05
3.04117e-05
2.85058e-05
2.65591e-05
2.50169e-05
2.13217e-05
1.77673e-05
1.09562e-05
4.78697e-06
2.35026e-06
9.57562e-07
3.83916e-08
5.54665e-07
7.39723e-06
1.41276e-05
1.63792e-05
1.74971e-05
1.94116e-05
2.19574e-05
2.22572e-05
2.17921e-05
1.88662e-05
1.80024e-05
1.94198e-05
2.14157e-05
2.42369e-05
2.62312e-05
2.87646e-05
3.06212e-05
3.23718e-05
3.36423e-05
3.48233e-05
3.56265e-05
3.62935e-05
3.66513e-05
3.68677e-05
3.68471e-05
3.66235e-05
3.61445e-05
3.53898e-05
3.42765e-05
3.27873e-05
3.07596e-05
2.81797e-05
2.50386e-05
2.16708e-05
1.87684e-05
1.44698e-05
5.49218e-06
1.85748e-06
6.62698e-07
2.65185e-08
1.03907e-06
1.32682e-05
2.09292e-05
2.23565e-05
2.33511e-05
2.51432e-05
2.52368e-05
2.45197e-05
2.16706e-05
2.0596e-05
2.2585e-05
2.48594e-05
2.77513e-05
3.0449e-05
3.25373e-05
3.43334e-05
3.61266e-05
3.74379e-05
3.88299e-05
3.95703e-05
4.0289e-05
4.06787e-05
4.09309e-05
4.0973e-05
4.08709e-05
4.05866e-05
4.00899e-05
3.93057e-05
3.81456e-05
3.63862e-05
3.40809e-05
3.136e-05
2.84104e-05
2.48035e-05
2.0149e-05
1.66207e-05
1.06341e-05
2.86947e-06
6.66248e-07
3.0401e-08
1.727e-06
1.95315e-05
2.67902e-05
2.72326e-05
2.7763e-05
2.72903e-05
2.64961e-05
2.40743e-05
2.24935e-05
2.46505e-05
2.7065e-05
3.00601e-05
3.30004e-05
3.52193e-05
3.69971e-05
3.8769e-05
4.03712e-05
4.15889e-05
4.25241e-05
4.32104e-05
4.37688e-05
4.40767e-05
4.42378e-05
4.42006e-05
4.40463e-05
4.37393e-05
4.32916e-05
4.26667e-05
4.18099e-05
4.06339e-05
3.81543e-05
3.48098e-05
3.14186e-05
2.77363e-05
2.34355e-05
1.85634e-05
1.34832e-05
4.58362e-06
1.01959e-06
5.64933e-08
2.58518e-06
2.43761e-05
3.13828e-05
3.05917e-05
2.92564e-05
2.84067e-05
2.61518e-05
2.39154e-05
2.5912e-05
2.86706e-05
3.15306e-05
3.47279e-05
3.69655e-05
3.88861e-05
4.07387e-05
4.23222e-05
4.36602e-05
4.47244e-05
4.5552e-05
4.61058e-05
4.64642e-05
4.66663e-05
4.67703e-05
4.67643e-05
4.66411e-05
4.64099e-05
4.60643e-05
4.55826e-05
4.49113e-05
4.39521e-05
4.28556e-05
4.07844e-05
3.72205e-05
3.32044e-05
2.81986e-05
2.19095e-05
1.59678e-05
8.45217e-06
1.63863e-06
1.27129e-07
3.50274e-06
2.86159e-05
3.42609e-05
3.25479e-05
3.10716e-05
2.81883e-05
2.56618e-05
2.66526e-05
2.95325e-05
3.25343e-05
3.55629e-05
3.81444e-05
4.00604e-05
4.20584e-05
4.36791e-05
4.50671e-05
4.61784e-05
4.70102e-05
4.75663e-05
4.80275e-05
4.84987e-05
4.87232e-05
4.88751e-05
4.88997e-05
4.88086e-05
4.86153e-05
4.83236e-05
4.79421e-05
4.74514e-05
4.67835e-05
4.57769e-05
4.42813e-05
4.16787e-05
3.78303e-05
3.39932e-05
2.78029e-05
1.941e-05
1.07332e-05
2.18239e-06
3.182e-07
4.28299e-06
3.1428e-05
3.65986e-05
3.46353e-05
3.09404e-05
2.77759e-05
2.69436e-05
2.97475e-05
3.301e-05
3.59451e-05
3.87175e-05
4.0748e-05
4.26721e-05
4.4317e-05
4.58132e-05
4.69604e-05
4.79003e-05
4.86687e-05
4.94058e-05
4.99261e-05
5.02112e-05
5.0784e-05
5.09015e-05
5.10023e-05
5.09044e-05
5.0681e-05
5.03242e-05
4.98753e-05
4.9369e-05
4.88216e-05
4.81705e-05
4.7188e-05
4.51244e-05
4.1453e-05
3.73508e-05
3.31906e-05
2.52203e-05
1.49159e-05
4.73612e-06
8.62445e-07
4.85533e-06
3.30941e-05
3.82974e-05
3.49456e-05
3.06294e-05
2.7755e-05
2.95342e-05
3.28271e-05
3.60295e-05
3.86191e-05
4.09898e-05
4.28006e-05
4.46235e-05
4.61046e-05
4.74032e-05
4.84619e-05
4.94239e-05
5.02984e-05
5.11115e-05
5.18343e-05
5.22405e-05
5.2898e-05
5.31891e-05
5.33325e-05
5.32698e-05
5.30039e-05
5.25422e-05
5.19163e-05
5.11911e-05
5.04506e-05
4.97626e-05
4.90923e-05
4.81713e-05
4.50102e-05
4.03347e-05
3.63794e-05
2.96347e-05
1.84605e-05
6.29043e-06
1.53313e-06
5.26532e-06
3.43158e-05
3.98743e-05
3.5121e-05
3.02623e-05
2.94226e-05
3.21801e-05
3.55176e-05
3.83449e-05
4.05506e-05
4.27105e-05
4.443e-05
4.61129e-05
4.74689e-05
4.87095e-05
4.98252e-05
5.09101e-05
5.19446e-05
5.29179e-05
5.38909e-05
5.4489e-05
5.50646e-05
5.56569e-05
5.58267e-05
5.58421e-05
5.55817e-05
5.50681e-05
5.43007e-05
5.33336e-05
5.22679e-05
5.12409e-05
5.03533e-05
4.95272e-05
4.8303e-05
4.39135e-05
3.96925e-05
3.44751e-05
2.32456e-05
8.9581e-06
2.17748e-06
5.48617e-06
3.46236e-05
4.03282e-05
3.53117e-05
3.05291e-05
3.14302e-05
3.45101e-05
3.76062e-05
3.9988e-05
4.2048e-05
4.40633e-05
4.56944e-05
4.72743e-05
4.86028e-05
4.99026e-05
5.11578e-05
5.24128e-05
5.36274e-05
5.47697e-05
5.59442e-05
5.67018e-05
5.71844e-05
5.80092e-05
5.82179e-05
5.83167e-05
5.81209e-05
5.76436e-05
5.68488e-05
5.57477e-05
5.44181e-05
5.30308e-05
5.18151e-05
5.09231e-05
5.01886e-05
4.66106e-05
4.17127e-05
3.76769e-05
2.69044e-05
1.12635e-05
2.69612e-06
5.47862e-06
3.4565e-05
4.07031e-05
3.52973e-05
3.14537e-05
3.32471e-05
3.63637e-05
3.91622e-05
4.12106e-05
4.32244e-05
4.51099e-05
4.66873e-05
4.82305e-05
4.96182e-05
5.10445e-05
5.24697e-05
5.38983e-05
5.52738e-05
5.65499e-05
5.7817e-05
5.86376e-05
5.9112e-05
6.0002e-05
6.02429e-05
6.03986e-05
6.02981e-05
5.99364e-05
5.92461e-05
5.81737e-05
5.67197e-05
5.50035e-05
5.32914e-05
5.19045e-05
5.09405e-05
4.94221e-05
4.40727e-05
4.06164e-05
3.09038e-05
1.38762e-05
3.18163e-06
5.41007e-06
3.42853e-05
4.10027e-05
3.53038e-05
3.26874e-05
3.47694e-05
3.7767e-05
4.02576e-05
4.21604e-05
4.41333e-05
4.59218e-05
4.74895e-05
4.90553e-05
5.05536e-05
5.21287e-05
5.37184e-05
5.52961e-05
5.67924e-05
5.81498e-05
5.9425e-05
6.02484e-05
6.07157e-05
6.15469e-05
6.17741e-05
6.19349e-05
6.1914e-05
6.17005e-05
6.1212e-05
6.0337e-05
5.89806e-05
5.71588e-05
5.5102e-05
5.32659e-05
5.21104e-05
5.16173e-05
4.6734e-05
4.23999e-05
3.39823e-05
1.6263e-05
3.62979e-06
5.24654e-06
3.36756e-05
4.07896e-05
3.55162e-05
3.37191e-05
3.59413e-05
3.87841e-05
4.10474e-05
4.28976e-05
4.48272e-05
4.65582e-05
4.81507e-05
4.97761e-05
5.14023e-05
5.31197e-05
5.48516e-05
5.65478e-05
5.81299e-05
5.95313e-05
6.07655e-05
6.1555e-05
6.19902e-05
6.26833e-05
6.28376e-05
6.29388e-05
6.29466e-05
6.28637e-05
6.26143e-05
6.20502e-05
6.09816e-05
5.92725e-05
5.69962e-05
5.45618e-05
5.26068e-05
5.1553e-05
4.87773e-05
4.41066e-05
3.69454e-05
1.86277e-05
4.06746e-06
4.96579e-06
3.28223e-05
4.03415e-05
3.58014e-05
3.45194e-05
3.67912e-05
3.95043e-05
4.1632e-05
4.34602e-05
4.53508e-05
4.7057e-05
4.86922e-05
5.03908e-05
5.21382e-05
5.39782e-05
5.58278e-05
5.76203e-05
5.92709e-05
6.07054e-05
6.18682e-05
6.26109e-05
6.2997e-05
6.35075e-05
6.35372e-05
6.35137e-05
6.34761e-05
6.34589e-05
6.3413e-05
6.31862e-05
6.25277e-05
6.11698e-05
5.90091e-05
5.63455e-05
5.39033e-05
5.22687e-05
5.04579e-05
4.53092e-05
3.92468e-05
2.08614e-05
4.49198e-06
4.64482e-06
3.17795e-05
3.97138e-05
3.60607e-05
3.50962e-05
3.7372e-05
4.00026e-05
4.206e-05
4.38801e-05
4.57359e-05
4.74371e-05
4.91177e-05
5.08845e-05
5.27317e-05
5.46695e-05
5.66141e-05
5.84873e-05
6.01973e-05
6.16575e-05
6.27936e-05
6.34656e-05
6.3791e-05
6.41046e-05
6.39807e-05
6.37882e-05
6.36408e-05
6.36178e-05
6.37115e-05
6.37938e-05
6.35828e-05
6.26906e-05
6.07919e-05
5.79678e-05
5.50015e-05
5.30095e-05
5.20121e-05
4.65997e-05
4.11549e-05
2.3016e-05
4.91358e-06
4.26118e-06
3.07251e-05
3.89596e-05
3.62427e-05
3.54964e-05
3.77397e-05
4.03249e-05
4.23541e-05
4.41718e-05
4.59999e-05
4.77042e-05
4.94174e-05
5.12336e-05
5.31529e-05
5.51626e-05
5.71805e-05
5.91209e-05
6.08858e-05
6.23768e-05
6.35079e-05
6.41167e-05
6.43778e-05
6.4505e-05
6.42225e-05
6.38437e-05
6.35433e-05
6.34511e-05
6.36056e-05
6.39311e-05
6.41552e-05
6.38256e-05
6.24224e-05
5.97215e-05
5.63062e-05
5.35872e-05
5.25042e-05
4.7883e-05
4.27205e-05
2.50808e-05
5.33143e-06
3.88735e-06
2.95114e-05
3.81108e-05
3.63385e-05
3.5724e-05
3.79223e-05
4.04955e-05
4.25367e-05
4.43587e-05
4.61559e-05
4.78553e-05
4.95884e-05
5.14337e-05
5.33905e-05
5.54364e-05
5.74966e-05
5.94832e-05
6.12903e-05
6.28075e-05
6.39378e-05
6.45063e-05
6.47065e-05
6.46849e-05
6.42617e-05
6.3708e-05
6.3244e-05
6.3052e-05
6.32048e-05
6.3701e-05
6.42999e-05
6.45294e-05
6.37185e-05
6.13394e-05
5.76752e-05
5.42452e-05
5.26786e-05
4.92271e-05
4.40523e-05
2.69928e-05
5.74619e-06
3.44686e-06
2.85601e-05
3.7177e-05
3.63117e-05
3.58644e-05
3.79627e-05
4.05357e-05
4.25999e-05
4.44216e-05
4.61976e-05
4.78951e-05
4.96107e-05
5.14327e-05
5.33844e-05
5.54403e-05
5.75253e-05
5.95334e-05
6.13518e-05
6.28683e-05
6.39839e-05
6.4535e-05
6.46628e-05
6.44346e-05
6.38677e-05
6.32214e-05
6.27248e-05
6.24723e-05
6.25827e-05
6.31925e-05
6.41006e-05
6.4863e-05
6.47119e-05
6.28416e-05
5.91333e-05
5.50099e-05
5.26198e-05
5.0271e-05
4.52189e-05
2.88581e-05
6.16001e-06
3.08741e-06
2.71828e-05
3.62647e-05
3.62142e-05
3.58618e-05
3.7858e-05
4.04274e-05
4.25637e-05
4.441e-05
4.61468e-05
4.77929e-05
4.9502e-05
5.13396e-05
5.32814e-05
5.52911e-05
5.72726e-05
5.91803e-05
6.09332e-05
6.24216e-05
6.35315e-05
6.41398e-05
6.42557e-05
6.38931e-05
6.32672e-05
6.25124e-05
6.18296e-05
6.14313e-05
6.16459e-05
6.24841e-05
6.36347e-05
6.4872e-05
6.53738e-05
6.41157e-05
6.05708e-05
5.59411e-05
5.28537e-05
5.10247e-05
4.62894e-05
3.05445e-05
6.56838e-06
2.77996e-06
2.56248e-05
3.48256e-05
3.62295e-05
3.58318e-05
3.75856e-05
4.02208e-05
4.2381e-05
4.42229e-05
4.59547e-05
4.76353e-05
4.92301e-05
5.08306e-05
5.25792e-05
5.44577e-05
5.64327e-05
5.83778e-05
6.01604e-05
6.16582e-05
6.27569e-05
6.33696e-05
6.35094e-05
6.32695e-05
6.27452e-05
6.19922e-05
6.11615e-05
6.06256e-05
6.06722e-05
6.13603e-05
6.28369e-05
6.46356e-05
6.57595e-05
6.51629e-05
6.19188e-05
5.68729e-05
5.31877e-05
5.15056e-05
4.72772e-05
3.21795e-05
6.97489e-06
2.50647e-06
2.39381e-05
3.32338e-05
3.61836e-05
3.57788e-05
3.73605e-05
3.97123e-05
4.21262e-05
4.40433e-05
4.57166e-05
4.71729e-05
4.8717e-05
5.0433e-05
5.2195e-05
5.39969e-05
5.58378e-05
5.76373e-05
5.92883e-05
6.06775e-05
6.17005e-05
6.22777e-05
6.23533e-05
6.21172e-05
6.16387e-05
6.09725e-05
6.04085e-05
6.00796e-05
6.005e-05
6.05589e-05
6.20763e-05
6.40648e-05
6.58129e-05
6.60261e-05
6.31343e-05
5.77778e-05
5.35361e-05
5.18297e-05
4.81326e-05
3.37199e-05
7.37245e-06
2.25695e-06
2.21609e-05
3.13281e-05
3.59923e-05
3.57409e-05
3.70142e-05
3.93926e-05
4.14967e-05
4.35125e-05
4.52001e-05
4.67903e-05
4.83483e-05
4.99123e-05
5.15116e-05
5.31441e-05
5.4775e-05
5.63714e-05
5.78521e-05
5.91154e-05
6.00718e-05
6.06573e-05
6.08112e-05
6.0634e-05
6.02412e-05
5.96592e-05
5.91019e-05
5.87771e-05
5.89949e-05
6.00121e-05
6.16058e-05
6.36565e-05
6.57904e-05
6.65373e-05
6.42941e-05
5.85505e-05
5.38035e-05
5.20024e-05
4.88986e-05
3.52123e-05
7.76362e-06
2.02247e-06
2.03254e-05
2.94814e-05
3.55926e-05
3.55227e-05
3.65381e-05
3.88749e-05
4.11425e-05
4.29755e-05
4.472e-05
4.63244e-05
4.77011e-05
4.90722e-05
5.05067e-05
5.19966e-05
5.34906e-05
5.49317e-05
5.62566e-05
5.73933e-05
5.82715e-05
5.88431e-05
5.90528e-05
5.89413e-05
5.86653e-05
5.82411e-05
5.78285e-05
5.76234e-05
5.78443e-05
5.87377e-05
6.0573e-05
6.32523e-05
6.5728e-05
6.67823e-05
6.50044e-05
5.92155e-05
5.39552e-05
5.20976e-05
4.96347e-05
3.6604e-05
8.14101e-06
1.79981e-06
1.84748e-05
2.7675e-05
3.45998e-05
3.57077e-05
3.61659e-05
3.80715e-05
4.05424e-05
4.25292e-05
4.42058e-05
4.56185e-05
4.69619e-05
4.82318e-05
4.95069e-05
5.0809e-05
5.21124e-05
5.33719e-05
5.45343e-05
5.55416e-05
5.63389e-05
5.68924e-05
5.71815e-05
5.71425e-05
5.69994e-05
5.67693e-05
5.65419e-05
5.65097e-05
5.6879e-05
5.79003e-05
5.97797e-05
6.24799e-05
6.53803e-05
6.71081e-05
6.55787e-05
5.97175e-05
5.39344e-05
5.19961e-05
5.02576e-05
3.79327e-05
8.50573e-06
1.58146e-06
1.65954e-05
2.58601e-05
3.2947e-05
3.57421e-05
3.59801e-05
3.74081e-05
3.96605e-05
4.18175e-05
4.34888e-05
4.48926e-05
4.61535e-05
4.73185e-05
4.8448e-05
4.95742e-05
5.06922e-05
5.17738e-05
5.27789e-05
5.36637e-05
5.43869e-05
5.49186e-05
5.53045e-05
5.53394e-05
5.53339e-05
5.53143e-05
5.52894e-05
5.5451e-05
5.59814e-05
5.71197e-05
5.90968e-05
6.19551e-05
6.50375e-05
6.70194e-05
6.6141e-05
5.9965e-05
5.37627e-05
5.17474e-05
5.07714e-05
3.91363e-05
8.85083e-06
1.36732e-06
1.47471e-05
2.39512e-05
3.1054e-05
3.56166e-05
3.57362e-05
3.67644e-05
3.86486e-05
4.08173e-05
4.26034e-05
4.40572e-05
4.52798e-05
4.63609e-05
4.73671e-05
4.83399e-05
4.92915e-05
5.02111e-05
5.10741e-05
5.18502e-05
5.25135e-05
5.3022e-05
5.35163e-05
5.36224e-05
5.375e-05
5.39425e-05
5.41226e-05
5.44858e-05
5.51883e-05
5.64557e-05
5.84978e-05
6.14036e-05
6.45705e-05
6.67055e-05
6.60425e-05
6.01261e-05
5.33505e-05
5.12466e-05
5.1199e-05
4.02646e-05
9.17799e-06
1.14849e-06
1.29028e-05
2.24333e-05
2.86602e-05
3.48751e-05
3.58431e-05
3.63634e-05
3.78227e-05
3.97213e-05
4.15825e-05
4.30964e-05
4.43202e-05
4.53514e-05
4.62682e-05
4.71228e-05
4.79416e-05
4.87295e-05
4.94771e-05
5.01658e-05
5.07885e-05
5.12778e-05
5.18847e-05
5.20559e-05
5.23064e-05
5.2701e-05
5.30753e-05
5.36325e-05
5.45002e-05
5.58912e-05
5.7969e-05
6.08545e-05
6.39521e-05
6.60587e-05
6.5451e-05
5.9737e-05
5.26569e-05
5.04227e-05
5.15029e-05
4.12377e-05
9.48116e-06
9.49347e-07
1.1347e-05
2.11071e-05
2.63196e-05
3.28566e-05
3.58108e-05
3.61876e-05
3.71709e-05
3.8766e-05
4.05163e-05
4.20661e-05
4.33195e-05
4.43368e-05
4.51985e-05
4.59684e-05
4.66868e-05
4.7373e-05
4.80314e-05
4.86549e-05
4.92478e-05
4.97396e-05
5.04355e-05
5.06635e-05
5.10295e-05
5.1609e-05
5.21512e-05
5.28799e-05
5.38857e-05
5.53757e-05
5.74335e-05
6.02015e-05
6.30504e-05
6.49547e-05
6.41862e-05
5.8805e-05
5.17254e-05
4.92556e-05
5.16581e-05
4.20866e-05
9.76502e-06
7.81696e-07
1.00275e-05
2.01468e-05
2.43516e-05
3.05168e-05
3.52111e-05
3.61215e-05
3.68403e-05
3.80147e-05
3.95051e-05
4.09738e-05
4.22299e-05
4.32549e-05
4.41019e-05
4.48331e-05
4.54964e-05
4.61235e-05
4.6724e-05
4.73221e-05
4.78627e-05
4.84884e-05
4.90697e-05
4.94168e-05
4.99621e-05
5.06366e-05
5.13087e-05
5.21719e-05
5.32643e-05
5.48008e-05
5.67435e-05
5.92731e-05
6.16607e-05
6.31833e-05
6.20527e-05
5.70445e-05
5.02706e-05
4.78516e-05
5.15698e-05
4.26855e-05
1.00281e-05
6.31996e-07
8.91014e-06
1.95014e-05
2.29474e-05
2.82535e-05
3.34881e-05
3.57627e-05
3.67457e-05
3.77121e-05
3.89037e-05
4.0178e-05
4.13475e-05
4.23342e-05
4.31502e-05
4.38431e-05
4.44582e-05
4.50413e-05
4.55844e-05
4.61831e-05
4.66363e-05
4.74321e-05
4.78576e-05
4.82981e-05
4.89953e-05
4.97114e-05
5.04552e-05
5.13923e-05
5.24807e-05
5.39693e-05
5.5644e-05
5.77803e-05
5.94708e-05
6.04575e-05
5.88308e-05
5.43161e-05
4.83219e-05
4.64584e-05
5.12177e-05
4.29042e-05
1.02825e-05
4.95998e-07
8.10623e-06
1.89899e-05
2.24799e-05
2.65331e-05
3.15977e-05
3.50723e-05
3.6537e-05
3.75886e-05
3.86017e-05
3.96523e-05
4.06638e-05
4.15599e-05
4.23212e-05
4.29739e-05
4.35448e-05
4.41e-05
4.4588e-05
4.51965e-05
4.55658e-05
4.64589e-05
4.67787e-05
4.72568e-05
4.8003e-05
4.87049e-05
4.94207e-05
5.03256e-05
5.12566e-05
5.2543e-05
5.37294e-05
5.5293e-05
5.60679e-05
5.64396e-05
5.43276e-05
5.05327e-05
4.57795e-05
4.51248e-05
5.05289e-05
4.24204e-05
1.05405e-05
4.27004e-07
7.90491e-06
1.82593e-05
2.26213e-05
2.49001e-05
2.96389e-05
3.401e-05
3.65721e-05
3.79377e-05
3.89982e-05
3.993e-05
4.07752e-05
4.15252e-05
4.21632e-05
4.2714e-05
4.31766e-05
4.36346e-05
4.40087e-05
4.45162e-05
4.48066e-05
4.5519e-05
4.5836e-05
4.62047e-05
4.67812e-05
4.73706e-05
4.78837e-05
4.85752e-05
4.91173e-05
4.99839e-05
5.04294e-05
5.12695e-05
5.10352e-05
5.08774e-05
4.85501e-05
4.58818e-05
4.2569e-05
4.32194e-05
4.96277e-05
4.18738e-05
1.06991e-05
4.44385e-07
8.76424e-06
1.74939e-05
2.26739e-05
2.5134e-05
2.82538e-05
3.22803e-05
3.59548e-05
3.83206e-05
3.96274e-05
4.058e-05
4.13152e-05
4.18974e-05
4.23687e-05
4.27532e-05
4.30795e-05
4.33914e-05
4.3671e-05
4.39425e-05
4.41389e-05
4.43379e-05
4.46329e-05
4.47169e-05
4.48629e-05
4.51337e-05
4.52137e-05
4.54539e-05
4.53645e-05
4.56035e-05
4.5185e-05
4.5319e-05
4.43146e-05
4.39877e-05
4.20635e-05
4.09862e-05
3.98485e-05
4.22256e-05
4.85324e-05
4.11661e-05
1.07554e-05
6.36325e-07
1.12658e-05
1.81442e-05
2.31526e-05
2.60525e-05
2.91011e-05
3.2342e-05
3.56623e-05
3.88405e-05
4.1242e-05
4.25324e-05
4.33839e-05
4.39521e-05
4.42907e-05
4.45379e-05
4.44991e-05
4.43019e-05
4.39711e-05
4.36292e-05
4.31862e-05
4.28172e-05
4.2299e-05
4.18633e-05
4.15905e-05
4.12104e-05
4.06516e-05
4.02858e-05
3.95616e-05
3.9207e-05
3.82755e-05
3.8098e-05
3.70853e-05
3.72252e-05
3.64971e-05
3.71997e-05
3.86276e-05
4.21637e-05
4.6808e-05
3.88926e-05
1.0677e-05
1.03612e-06
1.51832e-05
2.054e-05
2.47441e-05
2.80116e-05
3.12953e-05
3.47025e-05
3.74467e-05
4.02415e-05
4.28609e-05
4.49026e-05
4.58494e-05
4.6185e-05
4.60233e-05
4.5484e-05
4.4714e-05
4.37562e-05
4.26466e-05
4.15105e-05
4.03219e-05
3.94145e-05
3.81411e-05
3.73809e-05
3.65951e-05
3.55699e-05
3.46486e-05
3.4052e-05
3.33336e-05
3.30074e-05
3.25267e-05
3.27832e-05
3.27046e-05
3.38688e-05
3.45928e-05
3.71116e-05
3.94466e-05
4.41052e-05
4.46033e-05
3.69449e-05
1.03404e-05
1.71918e-06
1.96207e-05
2.31217e-05
2.7426e-05
3.11324e-05
3.44181e-05
3.74319e-05
3.96943e-05
4.07763e-05
4.21061e-05
4.31166e-05
4.33544e-05
4.3168e-05
4.26022e-05
4.18388e-05
4.08424e-05
3.97737e-05
3.87286e-05
3.7553e-05
3.63165e-05
3.54687e-05
3.45494e-05
3.35601e-05
3.28925e-05
3.23615e-05
3.2084e-05
3.19933e-05
3.21349e-05
3.265e-05
3.32401e-05
3.43414e-05
3.53665e-05
3.74067e-05
3.89933e-05
4.2147e-05
4.42695e-05
4.66051e-05
4.27602e-05
3.33786e-05
9.71302e-06
2.83456e-06
2.31422e-05
2.59997e-05
3.05548e-05
3.38191e-05
3.62393e-05
3.80645e-05
3.92018e-05
3.95093e-05
3.98911e-05
4.01289e-05
4.01363e-05
4.00205e-05
3.96549e-05
3.94123e-05
3.8733e-05
3.84949e-05
3.8142e-05
3.76861e-05
3.74077e-05
3.71613e-05
3.71349e-05
3.7145e-05
3.73918e-05
3.76724e-05
3.82181e-05
3.88056e-05
3.96213e-05
4.05935e-05
4.15756e-05
4.30295e-05
4.40425e-05
4.60426e-05
4.65951e-05
4.9221e-05
4.80263e-05
4.6398e-05
4.02851e-05
2.52162e-05
8.46134e-06
1.92308e-06
2.95158e-06
3.82097e-06
4.7074e-06
5.52323e-06
6.2596e-06
6.89241e-06
7.40123e-06
7.76291e-06
7.98846e-06
8.12996e-06
8.17109e-06
8.15451e-06
8.10442e-06
8.01762e-06
7.90241e-06
7.77812e-06
7.65707e-06
7.53087e-06
7.41647e-06
7.3072e-06
7.21468e-06
7.13403e-06
7.07171e-06
7.02786e-06
7.00253e-06
7.00682e-06
7.02508e-06
7.07482e-06
7.13112e-06
7.24876e-06
7.35617e-06
7.59842e-06
7.79062e-06
8.21805e-06
8.49685e-06
8.96624e-06
9.00946e-06
8.70548e-06
7.27223e-06
)
;

boundaryField
{
    movingWall
    {
        type            nutkWallFunction;
        Cmu             0.09;
        kappa           0.41;
        E               9.8;
        value           uniform 0;
    }
    fixedWalls
    {
        type            nutkWallFunction;
        Cmu             0.09;
        kappa           0.41;
        E               9.8;
        value           uniform 0;
    }
    frontAndBack
    {
        type            empty;
    }
}


// ************************************************************************* //
