/*--------------------------------*- C++ -*----------------------------------*\
  =========                 |
  \\      /  F ield         | OpenFOAM: The Open Source CFD Toolbox
   \\    /   O peration     | Website:  https://openfoam.org
    \\  /    A nd           | Version:  12
     \\/     M anipulation  |
\*---------------------------------------------------------------------------*/
FoamFile
{
    format      ascii;
    class       volScalarField;
    location    "9";
    object      p;
}
// * * * * * * * * * * * * * * * * * * * * * * * * * * * * * * * * * * * * * //

dimensions      [0 2 -2 0 0 0 0];

internalField   nonuniform List<scalar> 
1600
(
9.60331e-09
-2.73136e-05
-0.000117278
-0.00024166
-0.000353869
-0.000440003
-0.000518833
-0.00062656
-0.000772045
-0.000955385
-0.00118766
-0.00153264
-0.00195587
-0.00212798
-0.00238137
-0.00300849
-0.00392547
-0.00496125
-0.00594351
-0.00673632
-0.00724176
-0.00739326
-0.00713425
-0.00641934
-0.00528591
-0.00375145
-0.00182575
0.000424508
0.002876
0.00530363
0.00742214
0.00891668
0.00956469
0.00933788
0.00832496
0.0072748
0.00661553
0.00650241
0.00660835
0.00665899
-1.94169e-05
-7.33805e-05
-0.000173305
-0.00029222
-0.000373684
-0.00041447
-0.000454179
-0.000536403
-0.00066743
-0.000817976
-0.00096327
-0.00120178
-0.00164526
-0.00220675
-0.00285534
-0.00367992
-0.00465898
-0.00569034
-0.00664265
-0.00740271
-0.00788436
-0.00803085
-0.00780006
-0.0071735
-0.00612743
-0.00465994
-0.00281208
-0.000642976
0.00172028
0.00409918
0.00623506
0.00782419
0.0086235
0.00855359
0.00774303
0.00671926
0.00620137
0.00627103
0.00645504
0.00654297
-4.97612e-05
-0.000150258
-0.000278822
-0.000390487
-0.000432196
-0.000415846
-0.0004037
-0.000428048
-0.000518359
-0.000737253
-0.00110956
-0.00160979
-0.00226301
-0.00307364
-0.00401888
-0.00504513
-0.0060978
-0.00710468
-0.00798744
-0.00867628
-0.00910969
-0.00923332
-0.00901452
-0.00843698
-0.00747702
-0.00613174
-0.00443083
-0.00242718
-0.000212779
0.00207423
0.00422047
0.00597719
0.00709584
0.00742992
0.00707079
0.00642124
0.00608703
0.00614349
0.00631714
0.0063752
-5.80937e-05
-0.000206024
-0.000374224
-0.00047185
-0.000469377
-0.000420393
-0.000402174
-0.000463865
-0.000662941
-0.00108637
-0.00176152
-0.00262129
-0.00359164
-0.00464538
-0.00575865
-0.00687602
-0.00794259
-0.0089079
-0.00972703
-0.0103551
-0.0107411
-0.0108373
-0.0106205
-0.0100806
-0.009205
-0.00799577
-0.00647315
-0.00467508
-0.00266276
-0.000527157
0.00158372
0.00348227
0.00495198
0.00583928
0.0061703
0.0061462
0.00614778
0.00618097
0.00625889
0.00625846
7.96182e-05
-0.000136999
-0.00032539
-0.000422137
-0.000434398
-0.000427126
-0.000493317
-0.000724305
-0.00119833
-0.00195602
-0.00296125
-0.00411608
-0.00533155
-0.00655783
-0.00775923
-0.00890405
-0.00996119
-0.0109015
-0.0116799
-0.0122497
-0.0125757
-0.0126426
-0.0124347
-0.0119387
-0.0111504
-0.0100747
-0.00872419
-0.00712237
-0.00531089
-0.00335711
-0.00135391
0.000581681
0.00232201
0.00375632
0.00483466
0.00558282
0.00607071
0.00629997
0.00625559
0.0061843
0.000435261
0.000139374
-7.60037e-05
-0.000215835
-0.000313038
-0.000453075
-0.000747563
-0.00129454
-0.00213792
-0.0032465
-0.00453259
-0.00589704
-0.00726803
-0.00859451
-0.00984764
-0.0110063
-0.0120399
-0.0129181
-0.0136118
-0.0141045
-0.0143787
-0.0144234
-0.0142299
-0.0137813
-0.0130814
-0.012135
-0.010951
-0.00954352
-0.0079362
-0.00616604
-0.00428636
-0.002367
-0.000480845
0.00133012
0.00302071
0.00449439
0.00558711
0.00620619
0.00619302
0.00607045
0.000980052
0.000626007
0.000349615
0.000111556
-0.000158141
-0.000566333
-0.00121582
-0.00216185
-0.00338094
-0.00479157
-0.00629038
-0.00779733
-0.00925604
-0.0106256
-0.0118823
-0.0130059
-0.0139786
-0.0147841
-0.0154079
-0.0158409
-0.0160734
-0.0160988
-0.0159113
-0.0155044
-0.0148792
-0.0140408
-0.0129967
-0.0117573
-0.010336
-0.00875028
-0.00702272
-0.00517965
-0.0032418
-0.00121944
0.000858823
0.00288804
0.00460839
0.00573045
0.00612131
0.00589318
0.00163621
0.00124042
0.000846324
0.000448366
-7.90619e-05
-0.000845222
-0.00190886
-0.00325285
-0.00479824
-0.00643905
-0.0080853
-0.00967658
-0.0111689
-0.0125349
-0.0137587
-0.0148288
-0.0157379
-0.016479
-0.0170455
-0.0174318
-0.0176329
-0.0176448
-0.0174645
-0.0170909
-0.0165254
-0.0157726
-0.0148391
-0.0137328
-0.0124614
-0.0110321
-0.00944986
-0.00771447
-0.00581496
-0.00372874
-0.00145075
0.000932969
0.00317228
0.00490312
0.00585188
0.00553134
0.00222104
0.00174359
0.00123102
0.000639202
-0.000196192
-0.00135019
-0.0028077
-0.00449273
-0.00628627
-0.00808581
-0.00982226
-0.0114503
-0.0129399
-0.0142765
-0.0154537
-0.0164686
-0.0173202
-0.018007
-0.0185267
-0.0188769
-0.0190553
-0.0190598
-0.0188892
-0.0185441
-0.0180269
-0.017342
-0.0164953
-0.0154931
-0.0143404
-0.0130387
-0.0115833
-0.00995982
-0.00814175
-0.00608854
-0.00376136
-0.00119123
0.00141603
0.00368692
0.00513663
0.00523605
0.00255329
0.00200553
0.0013635
0.000557142
-0.00059084
-0.00210026
-0.00388307
-0.00581738
-0.00777848
-0.00967367
-0.0114522
-0.0130819
-0.0145466
-0.0158426
-0.016971
-0.0179348
-0.0187373
-0.0193801
-0.0198637
-0.0201876
-0.0203509
-0.0203531
-0.0201938
-0.0198741
-0.0193967
-0.0187658
-0.0179866
-0.0170647
-0.0160041
-0.0148046
-0.013458
-0.0119449
-0.0102321
-0.0082705
-0.00599783
-0.00338957
-0.000599322
0.00201655
0.00401098
0.00507904
0.00252045
0.00191697
0.00115145
0.000141812
-0.00128306
-0.00307097
-0.00508829
-0.00717929
-0.00923536
-0.0111717
-0.0129541
-0.0145612
-0.0159887
-0.0172404
-0.0183224
-0.019242
-0.0200043
-0.020613
-0.02107
-0.0213759
-0.0215308
-0.0215346
-0.0213878
-0.0210914
-0.0206479
-0.0200612
-0.0193358
-0.0184769
-0.0174882
-0.0163698
-0.0151141
-0.0137026
-0.0121023
-0.0102645
-0.0081191
-0.00559823
-0.00278187
-3.01254e-05
0.00234195
0.00397075
0.00209318
0.00144609
0.000574902
-0.000603202
-0.00223429
-0.00421352
-0.00636572
-0.00854019
-0.0106283
-0.0125629
-0.014321
-0.0158902
-0.0172744
-0.0184819
-0.0195224
-0.0204046
-0.021135
-0.0217179
-0.022156
-0.0224503
-0.0226015
-0.0226098
-0.0224759
-0.022201
-0.0217872
-0.0212379
-0.020557
-0.0197494
-0.0188189
-0.0177669
-0.0165884
-0.0152688
-0.0137794
-0.0120761
-0.0100947
-0.00774909
-0.00502913
-0.00230175
0.000114638
0.00182808
0.00129892
0.000628361
-0.000316737
-0.00161943
-0.00337641
-0.00546022
-0.00766436
-0.00985998
-0.0119339
-0.0138365
-0.015552
-0.0170748
-0.0184137
-0.0195796
-0.0205835
-0.0214346
-0.0221397
-0.0227032
-0.0231278
-0.0234149
-0.0235654
-0.0235797
-0.0234587
-0.0232037
-0.0228163
-0.0222995
-0.0216568
-0.0208926
-0.0200111
-0.0190153
-0.0179039
-0.0166673
-0.0152838
-0.0137168
-0.0119119
-0.0097875
-0.00728086
-0.0046686
-0.00243065
-0.000865399
0.000221345
-0.000449498
-0.00143374
-0.00281122
-0.00462965
-0.00673773
-0.00893611
-0.0111054
-0.0131335
-0.0149851
-0.0166477
-0.0181207
-0.0194153
-0.0205429
-0.0215149
-0.0223401
-0.0230248
-0.0235734
-0.0239882
-0.024271
-0.0244225
-0.0244434
-0.0243348
-0.0240979
-0.0237342
-0.0232461
-0.022637
-0.0219107
-0.0210722
-0.0201258
-0.0190736
-0.0179121
-0.0166276
-0.0151923
-0.0135621
-0.0116724
-0.0094506
-0.00702502
-0.00505746
-0.00373341
-0.0010244
-0.00168056
-0.00267521
-0.00407734
-0.0059002
-0.00797782
-0.0101376
-0.0122485
-0.0142126
-0.0160031
-0.0176088
-0.0190324
-0.0202851
-0.0213782
-0.0223225
-0.0231258
-0.023794
-0.0243307
-0.0247382
-0.0250181
-0.0251714
-0.025199
-0.0251018
-0.024881
-0.0245384
-0.0240759
-0.0234965
-0.0228041
-0.0220038
-0.0211014
-0.0201022
-0.0190082
-0.0178135
-0.0165004
-0.0150362
-0.0133731
-0.0114437
-0.0092827
-0.00757759
-0.00648951
-0.00232477
-0.00295205
-0.00393616
-0.0053244
-0.00711253
-0.00913015
-0.0112284
-0.0132654
-0.0151586
-0.0168852
-0.0184351
-0.0198119
-0.0210265
-0.0220892
-0.0230094
-0.0237943
-0.0244486
-0.0249756
-0.0253774
-0.0256554
-0.0258107
-0.0258443
-0.0257571
-0.0255507
-0.0252263
-0.0247862
-0.0242331
-0.0235708
-0.0228046
-0.0219416
-0.0209895
-0.0199552
-0.0188401
-0.0176358
-0.0163198
-0.0148548
-0.0131917
-0.0113588
-0.00989408
-0.00897696
-0.00357249
-0.00416408
-0.00512073
-0.00647617
-0.00820873
-0.0101533
-0.0121782
-0.0141378
-0.0159611
-0.0176266
-0.0191249
-0.0204598
-0.0216408
-0.0226771
-0.0235769
-0.0243461
-0.024989
-0.0255081
-0.0259054
-0.026182
-0.0263391
-0.0263777
-0.0262991
-0.0261046
-0.0257958
-0.0253747
-0.0248441
-0.0242079
-0.0234716
-0.022643
-0.0217321
-0.0207496
-0.0197035
-0.0185935
-0.0174047
-0.0161069
-0.0146723
-0.0131436
-0.0119025
-0.0111225
-0.00468737
-0.00523454
-0.00615373
-0.00746975
-0.00914268
-0.011014
-0.012965
-0.0148517
-0.0166114
-0.0182226
-0.019676
-0.020975
-0.0221276
-0.0231419
-0.0240248
-0.0247814
-0.025415
-0.0259278
-0.0263215
-0.0265971
-0.0267557
-0.0267984
-0.0267264
-0.0265414
-0.0262449
-0.0258392
-0.025327
-0.0247123
-0.024001
-0.0232014
-0.022325
-0.0213856
-0.0203967
-0.0193649
-0.0182823
-0.0171259
-0.0158851
-0.0146116
-0.0135661
-0.0128919
-0.00560384
-0.00611265
-0.00698787
-0.00826218
-0.00987969
-0.0116879
-0.0135731
-0.0153968
-0.0171026
-0.0186685
-0.0200854
-0.0213555
-0.0224856
-0.0234826
-0.0243525
-0.0250993
-0.025726
-0.0262343
-0.0266253
-0.0269003
-0.02706
-0.0271057
-0.0270386
-0.0268603
-0.0265727
-0.0261781
-0.0256797
-0.0250814
-0.0243893
-0.0236124
-0.0227631
-0.0218578
-0.0209136
-0.0199433
-0.0189462
-0.0179075
-0.0168251
-0.0157432
-0.014864
-0.0142795
-0.00629355
-0.00675366
-0.00759143
-0.00883033
-0.0104005
-0.0121592
-0.0139916
-0.015765
-0.0174288
-0.0189603
-0.0203499
-0.0215988
-0.0227128
-0.0236978
-0.0245588
-0.0252993
-0.0259216
-0.0264271
-0.0268168
-0.0270915
-0.0272521
-0.0272997
-0.0272354
-0.0270611
-0.0267787
-0.0263909
-0.0259008
-0.0253129
-0.0246336
-0.023872
-0.0230417
-0.0221603
-0.0212482
-0.020323
-0.0193908
-0.0184456
-0.0174889
-0.0165555
-0.0158066
-0.0152915
-0.00672667
-0.00714537
-0.00795828
-0.00916817
-0.0106975
-0.0124211
-0.014214
-0.015951
-0.0175858
-0.0190944
-0.0204664
-0.0217024
-0.0228071
-0.0237856
-0.0246422
-0.0253801
-0.026001
-0.026506
-0.0268959
-0.0271711
-0.0273325
-0.0273809
-0.0273175
-0.0271442
-0.0268632
-0.0264772
-0.0259898
-0.0254057
-0.0247316
-0.0239772
-0.0231565
-0.0222883
-0.0213955
-0.0204994
-0.0196125
-0.0187367
-0.0178761
-0.0170529
-0.0164033
-0.0159418
-0.00688291
-0.00728504
-0.00808994
-0.0092805
-0.0107755
-0.0124723
-0.0142368
-0.015952
-0.0175706
-0.0190674
-0.0204318
-0.0216633
-0.0227658
-0.0237439
-0.0246013
-0.0253408
-0.0259637
-0.0264708
-0.0268627
-0.0271395
-0.0273017
-0.0273501
-0.0272859
-0.0271107
-0.0268269
-0.0264374
-0.0259464
-0.0253588
-0.0246819
-0.0239256
-0.0231045
-0.0222378
-0.0213513
-0.0204688
-0.0196082
-0.0187791
-0.0179906
-0.0172514
-0.0166757
-0.0162447
-0.0067978
-0.00719009
-0.00799377
-0.0091751
-0.0106447
-0.0123174
-0.0140672
-0.015771
-0.017383
-0.0188777
-0.0202433
-0.0214785
-0.0225863
-0.0235704
-0.0244343
-0.0251801
-0.025809
-0.0263214
-0.0267175
-0.0269972
-0.0271607
-0.0272086
-0.0271418
-0.0269619
-0.0266713
-0.0262731
-0.0257716
-0.0251723
-0.0244833
-0.0237151
-0.0228828
-0.0220068
-0.0211131
-0.0202287
-0.0193756
-0.0185714
-0.0178326
-0.0171507
-0.0166376
-0.0162138
-0.00651567
-0.00689663
-0.00769821
-0.0088755
-0.0103246
-0.0119676
-0.0137089
-0.0154093
-0.0170224
-0.0185229
-0.019898
-0.021145
-0.0222655
-0.0232626
-0.024139
-0.0248966
-0.025536
-0.0260575
-0.0264606
-0.0267451
-0.0269107
-0.0269578
-0.0268869
-0.0266996
-0.0263982
-0.0259858
-0.0254671
-0.024848
-0.024137
-0.0233458
-0.0224905
-0.0215927
-0.0206788
-0.0197773
-0.0189147
-0.0181166
-0.0174086
-0.0167563
-0.0163064
-0.0158603
-0.00608512
-0.00645245
-0.00724452
-0.0084108
-0.00984057
-0.0114484
-0.0131685
-0.0148686
-0.0164883
-0.0180008
-0.0193926
-0.0206588
-0.0217997
-0.0228172
-0.0237132
-0.0244887
-0.0251441
-0.0256789
-0.0260925
-0.0263841
-0.0265531
-0.0265994
-0.0265233
-0.0263261
-0.0260099
-0.0255779
-0.0250349
-0.0243875
-0.0236447
-0.0228192
-0.0219285
-0.0209952
-0.0200474
-0.0191147
-0.0182274
-0.0174209
-0.0167268
-0.0160713
-0.0156764
-0.0152075
-0.00557049
-0.00591768
-0.00668315
-0.00781773
-0.00921411
-0.0107832
-0.0124641
-0.0141559
-0.0157814
-0.0173091
-0.0187229
-0.0200155
-0.0211848
-0.0222308
-0.023154
-0.0239546
-0.0246321
-0.0251855
-0.0256138
-0.0259155
-0.0260897
-0.0261357
-0.0260535
-0.0258441
-0.0255093
-0.0250524
-0.0244782
-0.0237937
-0.0230089
-0.0221375
-0.0211985
-0.0202162
-0.0192202
-0.0182417
-0.0173157
-0.0164879
-0.0157944
-0.0151114
-0.01477
-0.0142723
-0.00505128
-0.00536224
-0.00606919
-0.00713871
-0.00847229
-0.00998534
-0.0116132
-0.0132798
-0.0149035
-0.0164454
-0.0178849
-0.0192104
-0.0204161
-0.0214992
-0.0224582
-0.0232919
-0.0239989
-0.0245772
-0.0250251
-0.0253408
-0.0255226
-0.0255694
-0.0254808
-0.0252573
-0.0249005
-0.0244136
-0.0238013
-0.0230712
-0.022234
-0.021305
-0.0203049
-0.0192598
-0.0182012
-0.017162
-0.0161825
-0.015317
-0.0146016
-0.0138921
-0.0136242
-0.0130763
-0.00460981
-0.00485103
-0.00545159
-0.0064139
-0.0076484
-0.00907346
-0.0106284
-0.0122481
-0.0138565
-0.0154077
-0.0168741
-0.018238
-0.0194882
-0.0206178
-0.0216223
-0.0224985
-0.0232433
-0.0238539
-0.0243276
-0.0246619
-0.0248546
-0.0249041
-0.0248092
-0.0245703
-0.0241888
-0.0236672
-0.0230105
-0.0222267
-0.0213274
-0.0203292
-0.0192551
-0.0181334
-0.0169979
-0.0158832
-0.0148348
-0.0139144
-0.0131599
-0.0124091
-0.0122548
-0.0116115
-0.00430463
-0.00442298
-0.00486432
-0.00567818
-0.00677568
-0.00807317
-0.00952187
-0.0110679
-0.0126428
-0.0141946
-0.015687
-0.0170937
-0.0183964
-0.0195824
-0.0206431
-0.0215722
-0.0223647
-0.0230161
-0.0235229
-0.0238815
-0.0240894
-0.0241442
-0.0240443
-0.0237896
-0.023381
-0.0228211
-0.0221147
-0.02127
-0.0202996
-0.0192218
-0.0180617
-0.01685
-0.0156231
-0.0144182
-0.0132854
-0.0122921
-0.0114774
-0.0106626
-0.0106546
-0.00983359
-0.00412378
-0.00405914
-0.00432596
-0.0049627
-0.00588168
-0.00700758
-0.00830932
-0.00974946
-0.0112677
-0.0128075
-0.0143221
-0.0157747
-0.0171375
-0.0183904
-0.0195188
-0.0205124
-0.0213634
-0.0220656
-0.0226138
-0.0230039
-0.0232322
-0.0232961
-0.0231936
-0.0229236
-0.0224872
-0.0218865
-0.0211264
-0.0202154
-0.0191669
-0.0180007
-0.016744
-0.01543
-0.014098
-0.0127881
-0.0115556
-0.010471
-0.00957664
-0.00868962
-0.00878482
-0.00765821
-0.00391261
-0.00371088
-0.00385197
-0.00429125
-0.00498575
-0.00589399
-0.00700746
-0.00830713
-0.00974248
-0.0112537
-0.0127838
-0.0142835
-0.0157132
-0.017043
-0.018251
-0.0193215
-0.0202429
-0.0210066
-0.0216059
-0.0220354
-0.0222909
-0.022369
-0.0222677
-0.0219846
-0.0215211
-0.0208793
-0.0200639
-0.0190837
-0.0179528
-0.0166921
-0.0153309
-0.0139043
-0.0124546
-0.0110249
-0.00967665
-0.00848113
-0.00748891
-0.006521
-0.00661037
-0.00501893
-0.0036004
-0.00341048
-0.00345807
-0.00367404
-0.00410083
-0.00474737
-0.00563308
-0.00675877
-0.00808502
-0.00955007
-0.0110867
-0.0126322
-0.0141335
-0.0155491
-0.0168479
-0.0180075
-0.0190116
-0.0198484
-0.020509
-0.0209872
-0.0212776
-0.0213764
-0.0212808
-0.0209898
-0.0205026
-0.019822
-0.0189532
-0.0179046
-0.0166909
-0.0153339
-0.0138637
-0.012317
-0.0107385
-0.00917472
-0.00769362
-0.00636538
-0.00524888
-0.00416072
-0.00413381
-0.00193399
-0.00333356
-0.00320734
-0.00314798
-0.00311694
-0.00323843
-0.0035825
-0.00420522
-0.00512879
-0.00632406
-0.00772706
-0.00926061
-0.0108484
-0.0124233
-0.013931
-0.0153298
-0.0165892
-0.0176872
-0.0186081
-0.0193407
-0.0198769
-0.0202112
-0.0203391
-0.0202577
-0.0199652
-0.0194599
-0.0187467
-0.0178307
-0.0167196
-0.0154283
-0.0139781
-0.0123996
-0.0107287
-0.00901254
-0.00729943
-0.00566429
-0.00417272
-0.00288886
-0.00161167
-0.00133785
0.00148587
-0.00313935
-0.00307857
-0.00290259
-0.0026187
-0.00240628
-0.0024134
-0.00274542
-0.00344866
-0.00450073
-0.00583235
-0.00735558
-0.00898123
-0.0106287
-0.0122308
-0.0137348
-0.0151013
-0.0163018
-0.017316
-0.0181299
-0.0187336
-0.0191206
-0.0192866
-0.0192286
-0.0189465
-0.0184329
-0.0176982
-0.0167463
-0.0155847
-0.0142272
-0.0126935
-0.0110124
-0.00921725
-0.00735489
-0.00547271
-0.00364978
-0.00194085
-0.000416275
0.00115091
0.00179678
0.00522368
-0.00294169
-0.00296279
-0.00267424
-0.00214747
-0.00159123
-0.00124966
-0.00128406
-0.0017639
-0.00267206
-0.00393238
-0.00544396
-0.00710457
-0.00882145
-0.010516
-0.0121251
-0.0136007
-0.0149075
-0.0160203
-0.016922
-0.0176007
-0.0180488
-0.0182615
-0.0182351
-0.0179688
-0.01747
-0.0167312
-0.0157603
-0.0145662
-0.0131606
-0.011559
-0.00978607
-0.0078682
-0.00584851
-0.00376518
-0.00169431
0.00033213
0.00223701
0.00427136
0.00547986
0.00966896
-0.00268074
-0.00276443
-0.00240131
-0.00164919
-0.000767878
-0.000102951
0.000136722
-0.000139535
-0.00091788
-0.00211522
-0.00361919
-0.00531507
-0.00709824
-0.0088801
-0.0105889
-0.0121691
-0.0135795
-0.0147904
-0.0157814
-0.016539
-0.0170545
-0.0173224
-0.0173405
-0.0171086
-0.0166291
-0.0159014
-0.0149311
-0.0137253
-0.0122927
-0.0106416
-0.00878991
-0.00675061
-0.00455606
-0.00221994
0.000200361
0.002722
0.00527386
0.00814421
0.0104289
0.0162012
-0.00235921
-0.00245019
-0.00201216
-0.00107757
7.47457e-05
0.000991374
0.00144574
0.00133066
0.000655252
-0.000492182
-0.00199037
-0.00371657
-0.00555744
-0.007416
-0.00921315
-0.0108878
-0.0123937
-0.0136971
-0.0147745
-0.0156108
-0.0161963
-0.0165249
-0.0165945
-0.0164046
-0.0159567
-0.0152519
-0.0142949
-0.0130921
-0.0116481
-0.00996392
-0.00804648
-0.00588743
-0.00349778
-0.000841776
0.00206817
0.0053584
0.00900188
0.0134809
0.0181987
0.0276522
-0.00212795
-0.00217929
-0.00158749
-0.000454256
0.000871809
0.00198435
0.00257089
0.00255765
0.00195019
0.000834503
-0.000667184
-0.0024264
-0.00432184
-0.00624894
-0.00812211
-0.00987599
-0.011462
-0.0128426
-0.0139929
-0.0148968
-0.0155437
-0.0159272
-0.0160446
-0.0158957
-0.0154824
-0.0148058
-0.0138676
-0.012665
-0.0112094
-0.00949973
-0.00752621
-0.00525505
-0.00266645
0.000355835
0.0038801
0.00825282
0.0135808
0.0210535
0.0307438
0.0471748
-0.00307272
-0.00251688
-0.00143933
2.02728e-05
0.00154923
0.00277127
0.00343503
0.0034716
0.00289873
0.00180571
0.000311233
-0.00145992
-0.00338657
-0.00536081
-0.00729204
-0.0091098
-0.0107609
-0.0122053
-0.0134157
-0.014375
-0.0150711
-0.0154986
-0.0156539
-0.0155374
-0.0151495
-0.0144923
-0.0135677
-0.0123767
-0.0109182
-0.00917735
-0.00715499
-0.00480776
-0.00206391
0.00124249
0.00537949
0.0109694
0.0186662
0.0309399
0.0486877
0.0752173
-0.00517431
-0.00163678
-1.57366e-05
0.00140488
0.00280526
0.00392482
0.00451577
0.00448265
0.00385119
0.00271684
0.00119483
-0.000601156
-0.00255986
-0.00457656
-0.00656034
-0.00843619
-0.0101451
-0.0116461
-0.0129104
-0.0139176
-0.0146562
-0.0151191
-0.015305
-0.0152126
-0.0148442
-0.0141997
-0.0132822
-0.0120888
-0.0106174
-0.00887226
-0.00682079
-0.00450165
-0.00161958
0.00170348
0.0063652
0.0128255
0.0237636
0.0417847
0.0693367
0.104873
)
;

boundaryField
{
    movingWall
    {
        type            zeroGradient;
    }
    fixedWalls
    {
        type            zeroGradient;
    }
    frontAndBack
    {
        type            empty;
    }
}


// ************************************************************************* //
