/*--------------------------------*- C++ -*----------------------------------*\
  =========                 |
  \\      /  F ield         | OpenFOAM: The Open Source CFD Toolbox
   \\    /   O peration     | Website:  https://openfoam.org
    \\  /    A nd           | Version:  12
     \\/     M anipulation  |
\*---------------------------------------------------------------------------*/
FoamFile
{
    format      ascii;
    class       surfaceScalarField;
    location    "9";
    object      phi;
}
// * * * * * * * * * * * * * * * * * * * * * * * * * * * * * * * * * * * * * //

dimensions      [0 3 -1 0 0 0 0];

internalField   nonuniform List<scalar> 
3120
(
9.83547e-08
-9.83556e-08
2.40331e-07
-1.41977e-07
3.4361e-07
-1.03278e-07
3.77182e-07
-3.35725e-08
3.64743e-07
1.24395e-08
3.4325e-07
2.1493e-08
3.35249e-07
8.0004e-09
3.30318e-07
4.93145e-09
3.06839e-07
2.34789e-08
2.47431e-07
5.94081e-08
1.29659e-07
1.17772e-07
-9.47344e-08
2.24393e-07
-4.46668e-07
3.51934e-07
-9.58933e-07
5.12265e-07
-1.56148e-06
6.02551e-07
-2.14774e-06
5.86257e-07
-2.67639e-06
5.28646e-07
-3.12813e-06
4.51747e-07
-3.50203e-06
3.739e-07
-3.79865e-06
2.96613e-07
-4.02047e-06
2.21825e-07
-4.16863e-06
1.48154e-07
-4.24518e-06
7.65558e-08
-4.24558e-06
3.9651e-10
-4.17039e-06
-7.51897e-08
-4.02021e-06
-1.50177e-07
-3.78072e-06
-2.3949e-07
-3.45349e-06
-3.27231e-07
-3.03054e-06
-4.22952e-07
-2.51346e-06
-5.17082e-07
-1.9037e-06
-6.09755e-07
-1.22634e-06
-6.77361e-07
-5.34044e-07
-6.92298e-07
9.65072e-08
-6.30551e-07
5.9284e-07
-4.96332e-07
7.97687e-07
-2.04848e-07
6.83212e-07
1.14475e-07
4.4393e-07
2.39282e-07
1.87585e-07
2.56345e-07
1.87585e-07
1.7631e-07
-2.74665e-07
3.65782e-07
-3.31449e-07
4.80959e-07
-2.18456e-07
5.12042e-07
-6.46554e-08
4.76352e-07
4.81288e-08
3.99209e-07
9.86367e-08
2.91038e-07
1.16171e-07
1.26367e-07
1.69603e-07
-1.39564e-07
2.89411e-07
-5.5277e-07
4.72614e-07
-1.13892e-06
7.03923e-07
-1.85713e-06
9.42606e-07
-2.60845e-06
1.10325e-06
-3.25237e-06
1.15618e-06
-3.75672e-06
1.10691e-06
-4.18926e-06
1.0188e-06
-4.55525e-06
8.94643e-07
-4.85987e-06
7.56365e-07
-5.10056e-06
6.14585e-07
-5.27975e-06
4.75809e-07
-5.3974e-06
3.39469e-07
-5.45829e-06
2.09046e-07
-5.4588e-06
7.70699e-08
-5.40257e-06
-5.58358e-08
-5.28545e-06
-1.92306e-07
-5.09999e-06
-3.3564e-07
-4.84742e-06
-4.92063e-07
-4.51469e-06
-6.5996e-07
-4.09385e-06
-8.43788e-07
-3.58263e-06
-1.0283e-06
-2.98653e-06
-1.20586e-06
-2.31302e-06
-1.35087e-06
-1.59011e-06
-1.41521e-06
-8.59468e-07
-1.36119e-06
-2.33051e-07
-1.12275e-06
2.3154e-07
-6.69438e-07
3.8595e-07
-3.99351e-08
3.19775e-07
3.05457e-07
1.50281e-07
4.25839e-07
3.37866e-07
2.11615e-07
-4.86281e-07
3.5764e-07
-4.77473e-07
4.06798e-07
-2.67614e-07
3.76409e-07
-3.42655e-08
2.77441e-07
1.47096e-07
1.02333e-07
2.73745e-07
-1.88372e-07
4.06876e-07
-6.29306e-07
6.10537e-07
-1.23391e-06
8.94017e-07
-1.96162e-06
1.20032e-06
-2.7069e-06
1.4492e-06
-3.35554e-06
1.59125e-06
-3.88702e-06
1.63472e-06
-4.31287e-06
1.58204e-06
-4.66421e-06
1.45824e-06
-4.9472e-06
1.30179e-06
-5.17767e-06
1.1251e-06
-5.36294e-06
9.41641e-07
-5.50678e-06
7.58425e-07
-5.61064e-06
5.79663e-07
-5.67747e-06
4.06306e-07
-5.70342e-06
2.34992e-07
-5.68607e-06
5.97203e-08
-5.62904e-06
-1.12863e-07
-5.5299e-06
-2.91445e-07
-5.38431e-06
-4.8123e-07
-5.19021e-06
-6.86171e-07
-4.94191e-06
-9.08256e-07
-4.63435e-06
-1.15134e-06
-4.25205e-06
-1.41061e-06
-3.78464e-06
-1.67327e-06
-3.22302e-06
-1.91249e-06
-2.57315e-06
-2.06508e-06
-1.86293e-06
-2.0714e-06
-1.14038e-06
-1.84531e-06
-4.92239e-07
-1.31758e-06
-7.70777e-08
-4.55097e-07
3.39677e-08
1.94411e-07
2.33755e-08
4.36431e-07
3.61242e-07
1.7458e-07
-6.60861e-07
2.30347e-07
-5.3324e-07
1.83387e-07
-2.20654e-07
5.55365e-08
9.35851e-08
-1.62475e-07
3.65107e-07
-5.07872e-07
6.19142e-07
-1.00901e-06
9.08015e-07
-1.65152e-06
1.25305e-06
-2.36611e-06
1.60861e-06
-3.05579e-06
1.88999e-06
-3.64056e-06
2.03397e-06
-4.10281e-06
2.0535e-06
-4.4569e-06
1.98882e-06
-4.73103e-06
1.85616e-06
-4.95352e-06
1.68073e-06
-5.13112e-06
1.47939e-06
-5.27568e-06
1.26967e-06
-5.39448e-06
1.06044e-06
-5.48983e-06
8.53775e-07
-5.55695e-06
6.46786e-07
-5.59623e-06
4.45583e-07
-5.60507e-06
2.43833e-07
-5.58415e-06
3.87964e-08
-5.53577e-06
-1.61238e-07
-5.4573e-06
-3.69914e-07
-5.34622e-06
-5.92314e-07
-5.20074e-06
-8.31653e-07
-5.01728e-06
-1.09171e-06
-4.79501e-06
-1.37362e-06
-4.52884e-06
-1.67677e-06
-4.21254e-06
-1.98957e-06
-3.82882e-06
-2.29621e-06
-3.33472e-06
-2.55918e-06
-2.71461e-06
-2.69151e-06
-1.98042e-06
-2.5795e-06
-1.18981e-06
-2.10818e-06
-4.6154e-07
-1.18337e-06
-1.36314e-07
-1.30814e-07
-2.95988e-08
3.29716e-07
3.31643e-07
8.00917e-08
-7.40952e-07
1.91565e-08
-4.72305e-07
-1.36893e-07
-6.46047e-08
-3.79988e-07
3.3668e-07
-7.35311e-07
7.20431e-07
-1.2253e-06
1.10913e-06
-1.83911e-06
1.52182e-06
-2.51253e-06
1.92647e-06
-3.14981e-06
2.24588e-06
-3.6735e-06
2.41369e-06
-4.07521e-06
2.43568e-06
-4.3844e-06
2.36269e-06
-4.61751e-06
2.22193e-06
-4.79681e-06
2.03547e-06
-4.93972e-06
1.82364e-06
-5.05693e-06
1.5966e-06
-5.15017e-06
1.36292e-06
-5.21672e-06
1.12698e-06
-5.25731e-06
8.94371e-07
-5.27774e-06
6.67213e-07
-5.27959e-06
4.47431e-07
-5.26559e-06
2.29835e-07
-5.237e-06
1.02107e-08
-5.1909e-06
-2.07336e-07
-5.12614e-06
-4.3468e-07
-5.04326e-06
-6.7519e-07
-4.94177e-06
-9.33149e-07
-4.82033e-06
-1.21315e-06
-4.67561e-06
-1.51833e-06
-4.50295e-06
-1.84943e-06
-4.29266e-06
-2.19986e-06
-4.03673e-06
-2.55214e-06
-3.71596e-06
-2.87995e-06
-3.28313e-06
-3.12435e-06
-2.67606e-06
-3.18657e-06
-1.8833e-06
-2.90094e-06
-9.35764e-07
-2.13091e-06
-2.23579e-07
-8.43e-07
-1.57792e-08
1.21916e-07
3.15864e-07
-5.63199e-08
-6.84632e-07
-2.33244e-07
-2.95381e-07
-4.92705e-07
1.94856e-07
-8.45512e-07
6.89487e-07
-1.30883e-06
1.18375e-06
-1.87489e-06
1.67519e-06
-2.49348e-06
2.14041e-06
-3.08299e-06
2.51598e-06
-3.56854e-06
2.73144e-06
-3.9306e-06
2.77574e-06
-4.20191e-06
2.70699e-06
-4.4047e-06
2.56547e-06
-4.55412e-06
2.37135e-06
-4.66479e-06
2.14615e-06
-4.74287e-06
1.90171e-06
-4.79488e-06
1.64862e-06
-4.82609e-06
1.39412e-06
-4.84277e-06
1.14365e-06
-4.8489e-06
9.00504e-07
-4.8455e-06
6.63811e-07
-4.83069e-06
4.32624e-07
-4.80498e-06
2.04122e-07
-4.77051e-06
-2.42585e-08
-4.72321e-06
-2.54634e-07
-4.66544e-06
-4.92448e-07
-4.5984e-06
-7.42226e-07
-4.52304e-06
-1.00852e-06
-4.44014e-06
-1.29605e-06
-4.34946e-06
-1.60902e-06
-4.24893e-06
-1.94996e-06
-4.13164e-06
-2.31714e-06
-3.98281e-06
-2.70097e-06
-3.78505e-06
-3.07772e-06
-3.50837e-06
-3.40103e-06
-3.09436e-06
-3.60058e-06
-2.45113e-06
-3.54417e-06
-1.53268e-06
-3.04936e-06
-4.98189e-07
-1.87749e-06
-3.35238e-08
-3.42749e-07
2.8234e-07
-1.84573e-07
-5.0006e-07
-4.7777e-07
-2.18305e-09
-8.2872e-07
5.45805e-07
-1.26733e-06
1.1281e-06
-1.78838e-06
1.7048e-06
-2.35507e-06
2.24188e-06
-2.90379e-06
2.68913e-06
-3.3642e-06
2.9764e-06
-3.70239e-06
3.06962e-06
-3.94526e-06
3.01861e-06
-4.12118e-06
2.88291e-06
-4.24278e-06
2.68707e-06
-4.32428e-06
2.45284e-06
-4.37516e-06
2.19703e-06
-4.4035e-06
1.93005e-06
-4.41652e-06
1.66163e-06
-4.41933e-06
1.39694e-06
-4.41488e-06
1.13921e-06
-4.40356e-06
8.89183e-07
-4.38549e-06
6.45733e-07
-4.36027e-06
4.07405e-07
-4.32789e-06
1.71742e-07
-4.28865e-06
-6.34973e-08
-4.24178e-06
-3.01505e-07
-4.18823e-06
-5.45994e-07
-4.12955e-06
-8.00912e-07
-4.06749e-06
-1.07057e-06
-4.00405e-06
-1.35949e-06
-3.94085e-06
-1.67223e-06
-3.87826e-06
-2.01254e-06
-3.81347e-06
-2.38194e-06
-3.73793e-06
-2.7765e-06
-3.63395e-06
-3.1817e-06
-3.46946e-06
-3.56551e-06
-3.20133e-06
-3.86871e-06
-2.75396e-06
-3.99154e-06
-2.03581e-06
-3.76751e-06
-9.59642e-07
-2.95365e-06
-1.1735e-07
-1.18504e-06
1.6499e-07
-2.996e-07
-2.0046e-07
-6.70754e-07
3.6897e-07
-1.10126e-06
9.76308e-07
-1.58892e-06
1.61577e-06
-2.11415e-06
2.23002e-06
-2.63164e-06
2.75937e-06
-3.08048e-06
3.13797e-06
-3.4134e-06
3.30932e-06
-3.6418e-06
3.29802e-06
-3.801e-06
3.17782e-06
-3.90648e-06
2.98839e-06
-3.97057e-06
2.75116e-06
-4.0054e-06
2.48767e-06
-4.01947e-06
2.21111e-06
-4.0206e-06
1.93118e-06
-4.01388e-06
1.65491e-06
-4.00226e-06
1.38531e-06
-3.9868e-06
1.12375e-06
-3.96735e-06
8.69729e-07
-3.94357e-06
6.21956e-07
-3.91492e-06
3.78751e-07
-3.88097e-06
1.37798e-07
-3.84138e-06
-1.03095e-07
-3.79612e-06
-3.46764e-07
-3.74588e-06
-5.96236e-07
-3.69207e-06
-8.54721e-07
-3.63678e-06
-1.12585e-06
-3.58263e-06
-1.41364e-06
-3.53232e-06
-1.72254e-06
-3.48773e-06
-2.05713e-06
-3.44852e-06
-2.42115e-06
-3.40982e-06
-2.81521e-06
-3.35871e-06
-3.23281e-06
-3.26973e-06
-3.65449e-06
-3.10118e-06
-4.03727e-06
-2.79504e-06
-4.29768e-06
-2.27273e-06
-4.28982e-06
-1.43383e-06
-3.79255e-06
-3.38392e-07
-2.28048e-06
-1.73402e-07
-3.75604e-07
1.75144e-07
-8.15363e-07
8.08729e-07
-1.28527e-06
1.44622e-06
-1.78119e-06
2.11169e-06
-2.27682e-06
2.72565e-06
-2.72628e-06
3.20883e-06
-3.07037e-06
3.48206e-06
-3.30263e-06
3.54159e-06
-3.45711e-06
3.4525e-06
-3.55718e-06
3.27788e-06
-3.61458e-06
3.04579e-06
-3.6419e-06
2.77848e-06
-3.6492e-06
2.49497e-06
-3.64412e-06
2.20603e-06
-3.63258e-06
1.91964e-06
-3.61768e-06
1.64001e-06
-3.60087e-06
1.3685e-06
-3.58231e-06
1.1052e-06
-3.56152e-06
8.48931e-07
-3.53771e-06
5.98152e-07
-3.51002e-06
3.51062e-07
-3.47772e-06
1.05498e-07
-3.44018e-06
-1.40638e-07
-3.39734e-06
-3.896e-07
-3.3497e-06
-6.43874e-07
-3.29846e-06
-9.05963e-07
-3.24561e-06
-1.1787e-06
-3.19393e-06
-1.46533e-06
-3.14672e-06
-1.76976e-06
-3.10716e-06
-2.09668e-06
-3.07704e-06
-2.45127e-06
-3.05442e-06
-2.83783e-06
-3.03044e-06
-3.25679e-06
-2.98546e-06
-3.69947e-06
-2.88445e-06
-4.13827e-06
-2.67694e-06
-4.5052e-06
-2.31216e-06
-4.6546e-06
-1.70641e-06
-4.3983e-06
-6.35977e-07
-3.35091e-06
-8.09379e-07
-4.20357e-07
5.95501e-07
-8.94511e-07
1.28288e-06
-1.37574e-06
1.92744e-06
-1.85502e-06
2.59097e-06
-2.30605e-06
3.17668e-06
-2.67349e-06
3.57626e-06
-2.92621e-06
3.73479e-06
-3.092e-06
3.70737e-06
-3.19678e-06
3.55728e-06
-3.25722e-06
3.33832e-06
-3.28494e-06
3.07351e-06
-3.29158e-06
2.78512e-06
-3.28549e-06
2.48888e-06
-3.2729e-06
2.19344e-06
-3.25775e-06
1.9045e-06
-3.2418e-06
1.62406e-06
-3.22556e-06
1.35226e-06
-3.20862e-06
1.08826e-06
-3.19017e-06
8.30478e-07
-3.16918e-06
5.77162e-07
-3.14462e-06
3.265e-07
-3.11565e-06
7.6525e-08
-3.08157e-06
-1.74719e-07
-3.04216e-06
-4.29011e-07
-2.99767e-06
-6.88364e-07
-2.94893e-06
-9.54698e-07
-2.89753e-06
-1.23011e-06
-2.84584e-06
-1.51701e-06
-2.79707e-06
-1.81852e-06
-2.75488e-06
-2.13887e-06
-2.72245e-06
-2.48371e-06
-2.70054e-06
-2.85974e-06
-2.68449e-06
-3.27284e-06
-2.66056e-06
-3.7234e-06
-2.6008e-06
-4.19803e-06
-2.45652e-06
-4.64948e-06
-2.17892e-06
-4.93221e-06
-1.70299e-06
-4.87423e-06
-9.08374e-07
-4.14553e-06
-1.71775e-06
-4.37703e-07
1.0332e-06
-9.15844e-07
1.76102e-06
-1.3844e-06
2.396e-06
-1.83028e-06
3.03685e-06
-2.22395e-06
3.57035e-06
-2.50993e-06
3.86224e-06
-2.70177e-06
3.92663e-06
-2.8233e-06
3.82891e-06
-2.89501e-06
3.62899e-06
-2.93107e-06
3.37438e-06
-2.94266e-06
3.0851e-06
-2.93993e-06
2.78239e-06
-2.92964e-06
2.4786e-06
-2.91646e-06
2.18026e-06
-2.90284e-06
1.89088e-06
-2.88962e-06
1.61083e-06
-2.87669e-06
1.33934e-06
-2.86331e-06
1.07489e-06
-2.84851e-06
8.15673e-07
-2.83121e-06
5.59866e-07
-2.81041e-06
3.057e-07
-2.7853e-06
5.14181e-08
-2.75527e-06
-2.04754e-07
-2.71995e-06
-4.64327e-07
-2.6794e-06
-7.28915e-07
-2.63407e-06
-1.00003e-06
-2.58498e-06
-1.27919e-06
-2.53391e-06
-1.56808e-06
-2.48346e-06
-1.86897e-06
-2.43705e-06
-2.18529e-06
-2.39834e-06
-2.52241e-06
-2.36987e-06
-2.88821e-06
-2.35042e-06
-3.29229e-06
-2.33155e-06
-3.74227e-06
-2.29294e-06
-4.23664e-06
-2.1926e-06
-4.74981e-06
-1.96302e-06
-5.16179e-06
-1.57738e-06
-5.25987e-06
-9.60879e-07
-4.76203e-06
-2.67863e-06
-4.27106e-07
1.46031e-06
-8.87709e-07
2.22163e-06
-1.32637e-06
2.83466e-06
-1.72986e-06
3.44034e-06
-2.05833e-06
3.89882e-06
-2.28362e-06
4.08753e-06
-2.43419e-06
4.0772e-06
-2.52456e-06
3.91928e-06
-2.57531e-06
3.67974e-06
-2.59777e-06
3.39684e-06
-2.60233e-06
3.08966e-06
-2.59735e-06
2.77741e-06
-2.58809e-06
2.46933e-06
-2.57786e-06
2.17003e-06
-2.56805e-06
1.88108e-06
-2.55892e-06
1.6017e-06
-2.54999e-06
1.33041e-06
-2.54041e-06
1.0653e-06
-2.5292e-06
8.04469e-07
-2.51543e-06
5.46096e-07
-2.49824e-06
2.8851e-07
-2.47695e-06
3.01309e-08
-2.45106e-06
-2.30646e-07
-2.42018e-06
-4.95212e-07
-2.38418e-06
-7.64915e-07
-2.34319e-06
-1.04102e-06
-2.29772e-06
-1.32466e-06
-2.24882e-06
-1.61697e-06
-2.19833e-06
-1.91947e-06
-2.14897e-06
-2.23465e-06
-2.10425e-06
-2.56713e-06
-2.06762e-06
-2.92484e-06
-2.04036e-06
-3.31955e-06
-2.01816e-06
-3.76447e-06
-1.98729e-06
-4.26751e-06
-1.91722e-06
-4.81988e-06
-1.73022e-06
-5.34879e-06
-1.41179e-06
-5.5783e-06
-8.60535e-07
-5.31329e-06
-3.53917e-06
-3.95882e-07
1.85619e-06
-8.2329e-07
2.64903e-06
-1.22228e-06
3.23366e-06
-1.57695e-06
3.79501e-06
-1.84169e-06
4.16356e-06
-2.02488e-06
4.27072e-06
-2.14377e-06
4.19608e-06
-2.21419e-06
3.9897e-06
-2.25245e-06
3.718e-06
-2.26844e-06
3.41283e-06
-2.27146e-06
3.09268e-06
-2.26807e-06
2.77401e-06
-2.26224e-06
2.46351e-06
-2.25622e-06
2.16401e-06
-2.25072e-06
1.87557e-06
-2.24561e-06
1.59659e-06
-2.24028e-06
1.32508e-06
-2.23394e-06
1.05896e-06
-2.22577e-06
7.96298e-07
-2.21503e-06
5.35353e-07
-2.20108e-06
2.74558e-07
-2.18339e-06
1.24459e-08
-2.16159e-06
-2.52455e-07
-2.1353e-06
-5.21499e-07
-2.10429e-06
-7.95921e-07
-2.06845e-06
-1.07687e-06
-2.02785e-06
-1.36526e-06
-1.98293e-06
-1.66189e-06
-1.93471e-06
-1.96769e-06
-1.88507e-06
-2.28429e-06
-1.83689e-06
-2.6153e-06
-1.79378e-06
-2.96795e-06
-1.75853e-06
-3.3548e-06
-1.72983e-06
-3.79316e-06
-1.69839e-06
-4.29896e-06
-1.64184e-06
-4.87643e-06
-1.50142e-06
-5.48921e-06
-1.22231e-06
-5.85741e-06
-7.54791e-07
-5.78081e-06
-4.29396e-06
-3.50737e-07
2.20693e-06
-7.34777e-07
3.03307e-06
-1.08692e-06
3.5858e-06
-1.38732e-06
4.09541e-06
-1.59938e-06
4.37562e-06
-1.75045e-06
4.42178e-06
-1.84661e-06
4.29225e-06
-1.90376e-06
4.04685e-06
-1.93492e-06
3.74916e-06
-1.94872e-06
3.42663e-06
-1.95301e-06
3.09697e-06
-1.9528e-06
2.7738e-06
-1.95103e-06
2.46174e-06
-1.94915e-06
2.16212e-06
-1.94745e-06
1.87386e-06
-1.94564e-06
1.59478e-06
-1.94315e-06
1.3226e-06
-1.93934e-06
1.05515e-06
-1.9336e-06
7.90559e-07
-1.92542e-06
5.27172e-07
-1.91437e-06
2.6351e-07
-1.90009e-06
-1.83877e-09
-1.88229e-06
-2.70255e-07
-1.86067e-06
-5.43121e-07
-1.83493e-06
-8.21664e-07
-1.80478e-06
-1.10701e-06
-1.76999e-06
-1.40005e-06
-1.73051e-06
-1.70137e-06
-1.68668e-06
-2.01152e-06
-1.63957e-06
-2.3314e-06
-1.59131e-06
-2.66356e-06
-1.54515e-06
-3.01411e-06
-1.50465e-06
-3.39531e-06
-1.471e-06
-3.82681e-06
-1.43872e-06
-4.33123e-06
-1.39132e-06
-4.92383e-06
-1.28913e-06
-5.5914e-06
-1.03931e-06
-6.10722e-06
-6.42285e-07
-6.17783e-06
-4.93624e-06
-2.97987e-07
2.50492e-06
-6.29837e-07
3.36492e-06
-9.31008e-07
3.88697e-06
-1.17686e-06
4.34126e-06
-1.34991e-06
4.54867e-06
-1.47424e-06
4.54611e-06
-1.5523e-06
4.3703e-06
-1.59998e-06
4.09453e-06
-1.62707e-06
3.77625e-06
-1.64078e-06
3.44034e-06
-1.64737e-06
3.10356e-06
-1.65056e-06
2.77699e-06
-1.65246e-06
2.46364e-06
-1.65398e-06
2.16364e-06
-1.65519e-06
1.87508e-06
-1.65582e-06
1.59541e-06
-1.65541e-06
1.32218e-06
-1.65351e-06
1.05325e-06
-1.64974e-06
7.86791e-07
-1.6438e-06
5.21228e-07
-1.63543e-06
2.55141e-07
-1.62442e-06
-1.28439e-08
-1.61057e-06
-2.84106e-07
-1.59364e-06
-5.6005e-07
-1.57332e-06
-8.41983e-07
-1.54923e-06
-1.13111e-06
-1.52092e-06
-1.42835e-06
-1.48799e-06
-1.73431e-06
-1.45026e-06
-2.04925e-06
-1.40813e-06
-2.37354e-06
-1.36298e-06
-2.70871e-06
-1.31752e-06
-3.05957e-06
-1.27549e-06
-3.43734e-06
-1.23957e-06
-3.86272e-06
-1.20679e-06
-4.36402e-06
-1.16494e-06
-4.96567e-06
-1.08767e-06
-5.66868e-06
-8.8268e-07
-6.31221e-06
-5.51848e-07
-6.50867e-06
-5.48809e-06
-2.37999e-07
2.74292e-06
-5.15239e-07
3.64216e-06
-7.65766e-07
4.1375e-06
-9.6155e-07
4.53705e-06
-1.10143e-06
4.68856e-06
-1.20118e-06
4.64585e-06
-1.2653e-06
4.43442e-06
-1.30593e-06
4.13517e-06
-1.33048e-06
3.8008e-06
-1.34478e-06
3.45465e-06
-1.35363e-06
3.11241e-06
-1.35966e-06
2.78303e-06
-1.36438e-06
2.46836e-06
-1.36834e-06
2.1676e-06
-1.37155e-06
1.87829e-06
-1.37382e-06
1.59767e-06
-1.37486e-06
1.32322e-06
-1.37443e-06
1.05282e-06
-1.37233e-06
7.84694e-07
-1.36843e-06
5.17333e-07
-1.36263e-06
2.49341e-07
-1.35483e-06
-2.06495e-08
-1.3449e-06
-2.94038e-07
-1.33267e-06
-5.7228e-07
-1.31785e-06
-8.56799e-07
-1.30004e-06
-1.14892e-06
-1.27866e-06
-1.44973e-06
-1.25309e-06
-1.75988e-06
-1.22276e-06
-2.07957e-06
-1.18755e-06
-2.40875e-06
-1.1482e-06
-2.74806e-06
-1.10688e-06
-3.10088e-06
-1.06728e-06
-3.47694e-06
-1.0332e-06
-3.8968e-06
-1.00422e-06
-4.393e-06
-9.71645e-07
-4.99825e-06
-9.15454e-07
-5.72487e-06
-7.50056e-07
-6.47761e-06
-4.63061e-07
-6.79566e-06
-5.95115e-06
-1.78662e-07
2.92158e-06
-3.98482e-07
3.86198e-06
-5.97736e-07
4.33675e-06
-7.47605e-07
4.68691e-06
-8.57048e-07
4.798e-06
-9.35325e-07
4.72413e-06
-9.87642e-07
4.48674e-06
-1.02244e-06
4.16997e-06
-1.04497e-06
3.82333e-06
-1.05976e-06
3.46944e-06
-1.07025e-06
3.12289e-06
-1.07825e-06
2.79103e-06
-1.0848e-06
2.47491e-06
-1.09026e-06
2.17306e-06
-1.09467e-06
1.8827e-06
-1.09794e-06
1.60095e-06
-1.09998e-06
1.32526e-06
-1.10071e-06
1.05355e-06
-1.10011e-06
7.84091e-07
-1.09817e-06
5.15392e-07
-1.09489e-06
2.46065e-07
-1.09026e-06
-2.52761e-08
-1.08424e-06
-3.00062e-07
-1.0767e-06
-5.79815e-07
-1.06742e-06
-8.6608e-07
-1.056e-06
-1.16034e-06
-1.04186e-06
-1.46387e-06
-1.02423e-06
-1.77751e-06
-1.00231e-06
-2.10149e-06
-9.75553e-07
-2.43551e-06
-9.44179e-07
-2.77944e-06
-9.0974e-07
-3.13532e-06
-8.75571e-07
-3.51111e-06
-8.46135e-07
-3.92624e-06
-8.23478e-07
-4.41566e-06
-8.01106e-07
-5.02062e-06
-7.59426e-07
-5.76655e-06
-6.42231e-07
-6.5948e-06
-4.03505e-07
-7.03439e-06
-6.35466e-06
-1.14616e-07
3.03619e-06
-2.80211e-07
4.02758e-06
-4.2933e-07
4.48587e-06
-5.37868e-07
4.79545e-06
-6.19549e-07
4.87968e-06
-6.78301e-07
4.78288e-06
-7.19736e-07
4.52817e-06
-7.49024e-07
4.19925e-06
-7.69452e-07
3.84376e-06
-7.84175e-07
3.48416e-06
-7.95471e-07
3.13418e-06
-8.04508e-07
2.80007e-06
-8.11961e-07
2.48236e-06
-8.18106e-07
2.1792e-06
-8.23046e-07
1.88764e-06
-8.26838e-07
1.60474e-06
-8.2954e-07
1.32796e-06
-8.31234e-07
1.05524e-06
-8.32017e-07
7.84874e-07
-8.31986e-07
5.15362e-07
-8.31224e-07
2.45303e-07
-8.29784e-07
-2.67167e-08
-8.27674e-07
-3.02172e-07
-8.24839e-07
-5.82649e-07
-8.21111e-07
-8.69808e-07
-8.16155e-07
-1.1653e-06
-8.09423e-07
-1.4706e-06
-8.00129e-07
-1.78681e-06
-7.87343e-07
-2.11428e-06
-7.70254e-07
-2.45259e-06
-7.48652e-07
-2.80104e-06
-7.23579e-07
-3.1604e-06
-6.97938e-07
-3.53675e-06
-6.76399e-07
-3.94778e-06
-6.62753e-07
-4.4293e-06
-6.52735e-07
-5.03064e-06
-6.27551e-07
-5.79173e-06
-5.45265e-07
-6.67709e-06
-3.46513e-07
-7.23314e-06
-6.70117e-06
-5.76045e-08
3.0938e-06
-1.64867e-07
4.13484e-06
-2.63619e-07
4.58462e-06
-3.34309e-07
4.86614e-06
-3.89633e-07
4.935e-06
-4.29906e-07
4.82316e-06
-4.60831e-07
4.5591e-06
-4.8446e-07
4.22288e-06
-5.02319e-07
3.86162e-06
-5.16251e-07
3.49809e-06
-5.27508e-07
3.14544e-06
-5.3671e-07
2.80927e-06
-5.44274e-07
2.48993e-06
-5.50437e-07
2.18537e-06
-5.55391e-07
1.89259e-06
-5.59323e-07
1.60867e-06
-5.62434e-07
1.33107e-06
-5.64931e-07
1.05774e-06
-5.67014e-07
7.86957e-07
-5.6886e-07
5.17208e-07
-5.70613e-07
2.47056e-07
-5.72376e-07
-2.49534e-08
-5.74205e-07
-3.00343e-07
-5.76098e-07
-5.80756e-07
-5.77953e-07
-8.67953e-07
-5.79516e-07
-1.16373e-06
-5.80316e-07
-1.4698e-06
-5.79626e-07
-1.78749e-06
-5.76495e-07
-2.11741e-06
-5.69952e-07
-2.45914e-06
-5.59465e-07
-2.81153e-06
-5.4561e-07
-3.17425e-06
-5.30826e-07
-3.55153e-06
-5.19694e-07
-3.95891e-06
-5.16982e-07
-4.43202e-06
-5.2059e-07
-5.02703e-06
-5.15302e-07
-5.79702e-06
-4.6571e-07
-6.72668e-06
-3.05265e-07
-7.39359e-06
-7.00644e-06
5.63466e-09
3.08816e-06
-4.84382e-08
4.18892e-06
-1.01495e-07
4.63768e-06
-1.37934e-07
4.90258e-06
-1.67089e-07
4.96416e-06
-1.89627e-07
4.84569e-06
-2.09689e-07
4.57916e-06
-2.27096e-07
4.24029e-06
-2.4176e-07
3.87628e-06
-2.5415e-07
3.51048e-06
-2.64594e-07
3.15588e-06
-2.73224e-07
2.8179e-06
-2.80258e-07
2.49696e-06
-2.8591e-07
2.19102e-06
-2.90457e-07
1.89714e-06
-2.94214e-07
1.61243e-06
-2.9751e-07
1.33437e-06
-3.00661e-07
1.06089e-06
-3.03954e-07
7.90249e-07
-3.0763e-07
5.20884e-07
-3.11886e-07
2.51312e-07
-3.16871e-07
-1.99689e-08
-3.22677e-07
-2.94537e-07
-3.29344e-07
-5.74089e-07
-3.3683e-07
-8.60467e-07
-3.44966e-07
-1.1556e-06
-3.53395e-07
-1.46137e-06
-3.61508e-07
-1.77938e-06
-3.68416e-07
-2.1105e-06
-3.73107e-07
-2.45445e-06
-3.74831e-07
-2.8098e-06
-3.73771e-07
-3.17531e-06
-3.71881e-07
-3.55342e-06
-3.73435e-07
-3.95736e-06
-3.83691e-07
-4.42176e-06
-4.0259e-07
-5.00813e-06
-4.17095e-07
-5.78251e-06
-3.94815e-07
-6.74896e-06
-2.66521e-07
-7.52188e-06
-7.27296e-06
6.44424e-08
3.02372e-06
6.53887e-08
4.18797e-06
5.56023e-08
4.64747e-06
5.17386e-08
4.90645e-06
4.89806e-08
4.96692e-06
4.34983e-08
4.85118e-06
3.50775e-08
4.58758e-06
2.4643e-08
4.25072e-06
1.39672e-08
3.88696e-06
3.92674e-09
3.52052e-06
-4.95924e-09
3.16477e-06
-1.24227e-08
2.82536e-06
-1.84122e-08
2.50295e-06
-2.31308e-08
2.19574e-06
-2.69348e-08
1.90095e-06
-3.02531e-08
1.61575e-06
-3.35277e-08
1.33765e-06
-3.71742e-08
1.06454e-06
-4.15586e-08
7.94634e-07
-4.69877e-08
5.26313e-07
-5.37093e-08
2.58034e-07
-6.19158e-08
-1.17623e-08
-7.1734e-08
-2.84719e-07
-8.32374e-08
-5.62585e-07
-9.64304e-08
-8.47274e-07
-1.11224e-07
-1.1408e-06
-1.27378e-07
-1.44522e-06
-1.4443e-07
-1.76233e-06
-1.61646e-07
-2.09329e-06
-1.78092e-07
-2.438e-06
-1.92896e-07
-2.795e-06
-2.0585e-07
-3.16236e-06
-2.18474e-07
-3.5408e-06
-2.34599e-07
-3.94123e-06
-2.59662e-07
-4.3967e-06
-2.95404e-07
-4.97239e-06
-3.30714e-07
-5.7472e-06
-3.36114e-07
-6.74356e-06
-2.37248e-07
-7.62075e-06
-7.5102e-06
1.23794e-07
2.89993e-06
1.77488e-07
4.13427e-06
2.10216e-07
4.61474e-06
2.40006e-07
4.87666e-06
2.64419e-07
4.9425e-06
2.7611e-07
4.83949e-06
2.77235e-07
4.58646e-06
2.73415e-07
4.25454e-06
2.66974e-07
3.8934e-06
2.5972e-07
3.52778e-06
2.52872e-07
3.17162e-06
2.47128e-07
2.83111e-06
2.42641e-07
2.50744e-06
2.39229e-07
2.19915e-06
2.36478e-07
1.9037e-06
2.33865e-07
1.61836e-06
2.30843e-07
1.34067e-06
2.26901e-07
1.06848e-06
2.21593e-07
7.99942e-07
2.14545e-07
5.33361e-07
2.05455e-07
2.67124e-07
1.94076e-07
-3.83705e-10
1.80262e-07
-2.70905e-07
1.6389e-07
-5.46213e-07
1.44903e-07
-8.28287e-07
1.23325e-07
-1.11923e-06
9.93015e-08
-1.42119e-06
7.31391e-08
-1.73617e-06
4.53906e-08
-2.06554e-06
1.68844e-08
-2.40949e-06
-1.16012e-08
-2.76651e-06
-3.9808e-08
-3.13415e-06
-6.848e-08
-3.51213e-06
-1.00926e-07
-3.90878e-06
-1.42529e-07
-4.35509e-06
-1.96147e-07
-4.91877e-06
-2.51556e-07
-5.6918e-06
-2.82211e-07
-6.7129e-06
-2.10382e-07
-7.69257e-06
-7.72059e-06
1.83443e-07
2.71648e-06
2.88443e-07
4.02927e-06
3.60569e-07
4.54261e-06
4.21161e-07
4.81606e-06
4.71688e-07
4.89198e-06
5.03059e-07
4.80811e-06
5.15493e-07
4.57402e-06
5.19584e-07
4.25045e-06
5.18411e-07
3.89457e-06
5.1477e-07
3.53142e-06
5.10606e-07
3.17578e-06
5.07023e-07
2.83469e-06
5.04408e-07
2.51005e-06
5.0263e-07
2.20093e-06
5.01232e-07
1.90509e-06
4.99603e-07
1.61999e-06
4.97094e-07
1.34318e-06
4.93099e-07
1.07248e-06
4.87086e-07
8.05955e-07
4.78608e-07
5.41839e-07
4.673e-07
2.78432e-07
4.52885e-07
1.40312e-08
4.35132e-07
-2.53152e-07
4.13893e-07
-5.24974e-07
3.8906e-07
-8.03454e-07
3.60596e-07
-1.09076e-06
3.28528e-07
-1.38913e-06
2.92993e-07
-1.70063e-06
2.5434e-07
-2.02689e-06
2.13155e-07
-2.36831e-06
1.70174e-07
-2.72353e-06
1.26011e-07
-3.08999e-06
8.01396e-08
-3.46626e-06
2.98681e-08
-3.85851e-06
-3.00738e-08
-4.29515e-06
-1.03242e-07
-4.8456e-06
-1.79868e-07
-5.61517e-06
-2.33449e-07
-6.65932e-06
-1.89755e-07
-7.73627e-06
-7.91034e-06
2.40951e-07
2.47553e-06
3.97221e-07
3.873e-06
5.07895e-07
4.43194e-06
5.99416e-07
4.72454e-06
6.72412e-07
4.81898e-06
7.24428e-07
4.7561e-06
7.50657e-07
4.5478e-06
7.64082e-07
4.23703e-06
7.69329e-07
3.88933e-06
7.70239e-07
3.53051e-06
7.69502e-07
3.17652e-06
7.68683e-07
2.83551e-06
7.68414e-07
2.51032e-06
7.68652e-07
2.20069e-06
7.68935e-07
1.90481e-06
7.68589e-07
1.62034e-06
7.66882e-07
1.34488e-06
7.63111e-07
1.07625e-06
7.56654e-07
8.12412e-07
7.46984e-07
5.51509e-07
7.33668e-07
2.91749e-07
7.16356e-07
3.13428e-08
6.94778e-07
-2.31574e-07
6.6873e-07
-4.98925e-07
6.38043e-07
-7.72767e-07
6.02592e-07
-1.05531e-06
5.62293e-07
-1.34883e-06
5.17161e-07
-1.6555e-06
4.6733e-07
-1.97705e-06
4.13105e-07
-2.31408e-06
3.55062e-07
-2.66549e-06
2.93834e-07
-3.02876e-06
2.29393e-07
-3.40181e-06
1.5972e-07
-3.78884e-06
7.98627e-08
-4.2153e-06
-1.45142e-08
-4.75123e-06
-1.1357e-07
-5.51611e-06
-1.88881e-07
-6.58401e-06
-1.70851e-07
-7.7543e-06
-8.08119e-06
2.96459e-07
2.17907e-06
5.02484e-07
3.66698e-06
6.5031e-07
4.28411e-06
7.71298e-07
4.60355e-06
8.67291e-07
4.72299e-06
9.41189e-07
4.6822e-06
9.83562e-07
4.50542e-06
1.00745e-06
4.21314e-06
1.02035e-06
3.87642e-06
1.02701e-06
3.52385e-06
1.0307e-06
3.17282e-06
1.03344e-06
2.83277e-06
1.03613e-06
2.50763e-06
1.03887e-06
2.19794e-06
1.04125e-06
1.90243e-06
1.04256e-06
1.61902e-06
1.04201e-06
1.34544e-06
1.0388e-06
1.07946e-06
1.03221e-06
8.18995e-07
1.02165e-06
5.62077e-07
1.00658e-06
3.06818e-07
9.86584e-07
5.1335e-08
9.61335e-07
-2.06325e-07
9.30554e-07
-4.68143e-07
8.94002e-07
-7.36216e-07
8.51481e-07
-1.01279e-06
8.02808e-07
-1.30015e-06
7.47806e-07
-1.6005e-06
6.86341e-07
-1.91559e-06
6.18504e-07
-2.24625e-06
5.44674e-07
-2.59166e-06
4.65424e-07
-2.94951e-06
3.81115e-07
-3.31751e-06
2.90508e-07
-3.69823e-06
1.89276e-07
-4.11406e-06
7.29382e-08
-4.63489e-06
-4.96103e-08
-5.39357e-06
-1.47088e-07
-6.48653e-06
-1.55694e-07
-7.74569e-06
-8.23689e-06
3.47653e-07
1.83142e-06
6.01243e-07
3.41339e-06
7.85101e-07
4.10025e-06
9.34071e-07
4.45458e-06
1.05506e-06
4.602e-06
1.14939e-06
4.58787e-06
1.21169e-06
4.44312e-06
1.24887e-06
4.17597e-06
1.27142e-06
3.85387e-06
1.28547e-06
3.5098e-06
1.29498e-06
3.16331e-06
1.3024e-06
2.82536e-06
1.30894e-06
2.50109e-06
1.3149e-06
2.19198e-06
1.31996e-06
1.89737e-06
1.32343e-06
1.61556e-06
1.32447e-06
1.3444e-06
1.32222e-06
1.08171e-06
1.31589e-06
8.25326e-07
1.30477e-06
5.73193e-07
1.28827e-06
3.23323e-07
1.26587e-06
7.37345e-08
1.23716e-06
-1.77621e-07
1.20179e-06
-4.32768e-07
1.15941e-06
-6.93844e-07
1.10974e-06
-9.63119e-07
1.05246e-06
-1.24287e-06
9.87213e-07
-1.53526e-06
9.13663e-07
-1.84204e-06
8.31579e-07
-2.16416e-06
7.41022e-07
-2.5011e-06
6.4258e-07
-2.85107e-06
5.3699e-07
-3.21192e-06
4.23797e-07
-3.58504e-06
2.9946e-07
-3.98973e-06
1.60097e-07
-4.49553e-06
1.57629e-08
-5.24923e-06
-1.05437e-07
-6.36533e-06
-1.38624e-07
-7.7125e-06
-8.37551e-06
3.89662e-07
1.44176e-06
6.87648e-07
3.1154e-06
9.07438e-07
3.88046e-06
1.08456e-06
4.27746e-06
1.23083e-06
4.45573e-06
1.34672e-06
4.47198e-06
1.43164e-06
4.35821e-06
1.48592e-06
4.12168e-06
1.52122e-06
3.81857e-06
1.54515e-06
3.48587e-06
1.56253e-06
3.14593e-06
1.5763e-06
2.81158e-06
1.58804e-06
2.48935e-06
1.59829e-06
2.18173e-06
1.60687e-06
1.88879e-06
1.61318e-06
1.60924e-06
1.6164e-06
1.34119e-06
1.61562e-06
1.08248e-06
1.61e-06
8.30948e-07
1.59875e-06
5.8444e-07
1.58118e-06
3.40893e-07
1.5567e-06
9.82208e-08
1.52479e-06
-1.45718e-07
1.485e-06
-3.92973e-07
1.43687e-06
-6.45718e-07
1.37999e-06
-9.06232e-07
1.31386e-06
-1.17674e-06
1.23795e-06
-1.45935e-06
1.15166e-06
-1.75575e-06
1.05447e-06
-2.06698e-06
9.46201e-07
-2.39283e-06
8.27308e-07
-2.73217e-06
6.98767e-07
-3.08337e-06
5.61046e-07
-3.44732e-06
4.11391e-07
-3.84007e-06
2.4582e-07
-4.32996e-06
7.28286e-08
-5.07624e-06
-7.06552e-08
-6.22185e-06
-1.2708e-07
-7.65608e-06
-8.50259e-06
4.12805e-07
1.02895e-06
7.52426e-07
2.77578e-06
1.01122e-06
3.62167e-06
1.21767e-06
4.07102e-06
1.38906e-06
4.28433e-06
1.52941e-06
4.33163e-06
1.63851e-06
4.24911e-06
1.71449e-06
4.04571e-06
1.76696e-06
3.7661e-06
1.80443e-06
3.4484e-06
1.83266e-06
3.1177e-06
1.85523e-06
2.78901e-06
1.87415e-06
2.47043e-06
1.89027e-06
2.16562e-06
1.90364e-06
1.87542e-06
1.9138e-06
1.59909e-06
1.91999e-06
1.33499e-06
1.92136e-06
1.08111e-06
1.91702e-06
8.35293e-07
1.90613e-06
5.95328e-07
1.88792e-06
3.59106e-07
1.8617e-06
1.24437e-07
1.82688e-06
-1.10893e-07
1.78284e-06
-3.48936e-07
1.72901e-06
-5.91889e-07
1.6648e-06
-8.42017e-07
1.58952e-06
-1.10146e-06
1.50241e-06
-1.37224e-06
1.4026e-06
-1.65594e-06
1.28931e-06
-1.95369e-06
1.16208e-06
-2.2656e-06
1.02131e-06
-2.5914e-06
8.6809e-07
-2.93015e-06
7.03729e-07
-3.28296e-06
5.26558e-07
-3.6629e-06
3.32855e-07
-4.13625e-06
1.31519e-07
-4.8749e-06
-3.81814e-08
-6.05215e-06
-1.14959e-07
-7.5793e-06
-8.61755e-06
3.98179e-07
6.30776e-07
7.84686e-07
2.38927e-06
1.08752e-06
3.31883e-06
1.32583e-06
3.83272e-06
1.52308e-06
4.08708e-06
1.69e-06
4.16471e-06
1.82631e-06
4.1128e-06
1.92876e-06
3.94325e-06
2.00389e-06
3.69097e-06
2.05993e-06
3.39237e-06
2.10327e-06
3.07436e-06
2.13817e-06
2.75411e-06
2.16714e-06
2.44146e-06
2.19144e-06
2.14132e-06
2.21143e-06
1.85542e-06
2.22689e-06
1.58362e-06
2.23723e-06
1.32465e-06
2.24166e-06
1.07668e-06
2.23933e-06
8.37622e-07
2.2294e-06
6.05257e-07
2.21103e-06
3.77475e-07
2.18347e-06
1.51995e-07
2.14599e-06
-7.34072e-08
2.09785e-06
-3.00801e-07
2.03832e-06
-5.32354e-07
1.96659e-06
-7.70289e-07
1.88174e-06
-1.01661e-06
1.78276e-06
-1.27325e-06
1.66849e-06
-1.54167e-06
1.53792e-06
-1.82311e-06
1.39036e-06
-2.11804e-06
1.22614e-06
-2.42719e-06
1.04647e-06
-2.75047e-06
8.53331e-07
-3.08982e-06
6.463e-07
-3.45587e-06
4.2261e-07
-3.91256e-06
1.9026e-07
-4.64255e-06
-1.29612e-08
-5.84893e-06
-1.08711e-07
-7.48355e-06
-8.72626e-06
3.22988e-07
3.07788e-07
7.77397e-07
1.93487e-06
1.12545e-06
2.97078e-06
1.39893e-06
3.55923e-06
1.62496e-06
3.86106e-06
1.82027e-06
3.9694e-06
1.98719e-06
3.94587e-06
2.12131e-06
3.80913e-06
2.22549e-06
3.5868e-06
2.3064e-06
3.31145e-06
2.37047e-06
3.01029e-06
2.42246e-06
2.70212e-06
2.46544e-06
2.39848e-06
2.50117e-06
2.10559e-06
2.5304e-06
1.82619e-06
2.55324e-06
1.56078e-06
2.56935e-06
1.30855e-06
2.57811e-06
1.06792e-06
2.57879e-06
8.3694e-07
2.57058e-06
6.13465e-07
2.55264e-06
3.95418e-07
2.52417e-06
1.80463e-07
2.48423e-06
-3.34675e-08
2.4321e-06
-2.48669e-07
2.36677e-06
-4.67026e-07
2.28723e-06
-6.90748e-07
2.19228e-06
-9.21665e-07
2.08063e-06
-1.1616e-06
1.95084e-06
-1.41188e-06
1.80171e-06
-1.67398e-06
1.63238e-06
-1.94872e-06
1.44316e-06
-2.23797e-06
1.23528e-06
-2.54259e-06