/*--------------------------------*- C++ -*----------------------------------*\
  =========                 |
  \\      /  F ield         | OpenFOAM: The Open Source CFD Toolbox
   \\    /   O peration     | Website:  https://openfoam.org
    \\  /    A nd           | Version:  12
     \\/     M anipulation  |
\*---------------------------------------------------------------------------*/
FoamFile
{
    format      ascii;
    class       volScalarField;
    location    "0.5";
    object      epsilon;
}
// * * * * * * * * * * * * * * * * * * * * * * * * * * * * * * * * * * * * * //

dimensions      [0 2 -3 0 0 0 0];

internalField   nonuniform List<scalar> 
1600
(
0.00032644
0.000919705
0.00150229
0.00193568
0.00224262
0.00245556
0.00260034
0.00269683
0.00276019
0.00280174
0.00282962
0.00284938
0.00286464
0.00287765
0.00288971
0.00290157
0.00291362
0.00292607
0.00293897
0.00295231
0.00296598
0.00297984
0.00299401
0.00300986
0.00302615
0.00304186
0.00305607
0.00306704
0.00307205
0.00306854
0.00305022
0.00301005
0.0029384
0.00282299
0.00264842
0.00239558
0.0020408
0.00155637
0.000929123
0.000326453
0.000929075
0.000954989
0.00121567
0.00142261
0.00156946
0.00166936
0.00173531
0.00177774
0.00180451
0.00182129
0.00183197
0.00183911
0.00184431
0.00184852
0.00185229
0.00185589
0.00185948
0.00186311
0.00186681
0.00187056
0.00187435
0.00187819
0.0018822
0.00188673
0.0018914
0.00189577
0.00189949
0.00190164
0.00190169
0.00189804
0.00188842
0.00186979
0.00183796
0.00178738
0.00171082
0.00159899
0.00143969
0.00122102
0.00095427
0.000918695
0.00155115
0.00122252
0.00135283
0.00148508
0.00158548
0.00165535
0.00170192
0.00173208
0.00175115
0.00176302
0.0017704
0.00177513
0.00177834
0.00178074
0.00178275
0.00178461
0.00178642
0.00178827
0.00179018
0.00179216
0.00179424
0.00179642
0.00179874
0.00180126
0.00180378
0.0018061
0.00180789
0.00180864
0.00180788
0.00180447
0.00179692
0.00178315
0.00176033
0.00172471
0.00167153
0.00159503
0.00148942
0.00135213
0.00121608
0.0014955
0.00203238
0.00144061
0.00149019
0.00157859
0.00165188
0.00170551
0.00174251
0.001767
0.00178274
0.00179264
0.00179879
0.00180264
0.00180512
0.00180685
0.00180818
0.00180933
0.00181044
0.00181157
0.00181277
0.00181406
0.00181546
0.00181697
0.00181861
0.00182032
0.00182202
0.00182355
0.00182458
0.00182481
0.00182374
0.00182051
0.00181396
0.00180252
0.00178406
0.00175587
0.00171458
0.00165648
0.00157881
0.0014853
0.00142247
0.00192039
0.00238667
0.00160002
0.0015961
0.00165647
0.00171295
0.00175615
0.00178677
0.00180751
0.0018211
0.00182977
0.0018352
0.00183856
0.00184065
0.001842
0.00184295
0.00184371
0.00184441
0.00184514
0.00184593
0.00184681
0.00184782
0.00184894
0.00185018
0.00185149
0.0018528
0.00185395
0.00185462
0.00185463
0.00185345
0.00185041
0.00184454
0.00183457
0.00181881
0.00179513
0.00176102
0.00171388
0.00165255
0.00158584
0.00156738
0.00221636
0.0026425
0.00171286
0.00167317
0.00171504
0.0017603
0.00179645
0.0018227
0.00184083
0.00185291
0.00186074
0.00186569
0.00186874
0.00187061
0.00187175
0.00187249
0.00187303
0.0018735
0.00187398
0.00187453
0.00187517
0.00187594
0.00187684
0.00187784
0.00187893
0.00188001
0.00188094
0.00188142
0.0018813
0.00188009
0.00187721
0.00187181
0.00186282
0.00184882
0.00182802
0.00179836
0.00175788
0.0017063
0.00165505
0.00166428
0.00241575
0.00282398
0.00179137
0.0017275
0.00175724
0.00179512
0.00182654
0.0018498
0.00186609
0.00187709
0.00188431
0.00188891
0.00189177
0.0018935
0.00189452
0.00189514
0.00189554
0.00189588
0.00189621
0.00189662
0.00189712
0.00189775
0.00189851
0.00189939
0.00190034
0.00190129
0.0019021
0.00190248
0.0019023
0.0019011
0.00189834
0.00189328
0.00188495
0.00187206
0.00185302
0.00182602
0.00178939
0.00174338
0.00170039
0.00172641
0.00254428
0.00295038
0.00184506
0.00176498
0.00178691
0.00182005
0.00184838
0.00186963
0.00188465
0.00189489
0.00190167
0.00190604
0.00190876
0.0019104
0.00191136
0.00191191
0.00191225
0.00191251
0.00191278
0.00191311
0.00191355
0.00191411
0.0019148
0.00191562
0.00191651
0.00191742
0.00191819
0.00191855
0.00191835
0.00191719
0.00191455
0.00190973
0.00190182
0.00188959
0.00187155
0.00184596
0.00181129
0.00176802
0.00172913
0.00176436
0.00262203
0.00303698
0.00188125
0.00179046
0.00180746
0.00183763
0.00186402
0.00188397
0.00189816
0.00190788
0.00191436
0.00191856
0.0019212
0.0019228
0.00192373
0.00192426
0.00192459
0.00192483
0.00192507
0.00192539
0.00192581
0.00192637
0.00192707
0.00192789
0.0019288
0.00192973
0.00193054
0.00193095
0.00193081
0.00192974
0.00192723
0.0019226
0.00191495
0.00190309
0.00188552
0.0018605
0.00182653
0.00178416
0.00174674
0.00178585
0.00266206
0.00309574
0.00190546
0.00180766
0.00182161
0.00185
0.0018752
0.00189436
0.00190802
0.00191741
0.0019237
0.0019278
0.00193039
0.00193198
0.00193291
0.00193346
0.0019338
0.00193406
0.00193434
0.00193468
0.00193515
0.00193576
0.00193652
0.00193742
0.00193842
0.00193945
0.00194038
0.00194095
0.00194094
0.00194003
0.0019377
0.00193327
0.00192582
0.00191414
0.00189669
0.00187171
0.00183762
0.00179493
0.00175724
0.00179653
0.00267555
0.00313581
0.00192177
0.00181935
0.00183141
0.00185875
0.00188328
0.00190198
0.00191533
0.00192453
0.00193071
0.00193475
0.00193733
0.00193893
0.0019399
0.00194048
0.00194087
0.00194119
0.00194153
0.00194196
0.00194252
0.00194324
0.00194413
0.00194517
0.00194633
0.00194755
0.0019487
0.00194954
0.00194979
0.00194916
0.00194711
0.00194294
0.0019357
0.00192413
0.00190663
0.00188133
0.00184658
0.00180275
0.00176371
0.00180091
0.00267393
0.00316393
0.00193311
0.0018275
0.00183838
0.00186511
0.00188927
0.00190772
0.00192092
0.00193002
0.00193614
0.00194017
0.00194276
0.00194439
0.0019454
0.00194604
0.0019465
0.00194691
0.00194735
0.0019479
0.0019486
0.00194949
0.00195057
0.00195184
0.00195327
0.00195478
0.00195626
0.00195753
0.00195819
0.00195801
0.0019564
0.00195265
0.00194574
0.00193434
0.00191673
0.00189093
0.00185513
0.00180952
0.00176828
0.00180155
0.00265873
0.00318492
0.00194151
0.00183352
0.00184357
0.00186994
0.0018939
0.00191224
0.00192536
0.00193443
0.00194053
0.00194457
0.00194718
0.00194886
0.00194993
0.00195065
0.0019512
0.00195171
0.00195229
0.001953
0.00195389
0.00195501
0.00195636
0.00195795
0.00195975
0.00196169
0.00196367
0.00196552
0.00196689
0.00196736
0.00196647
0.00196341
0.00195708
0.00194604
0.00192842
0.00190204
0.00186488
0.00181685
0.0017725
0.00179981
0.00263317
0.00320203
0.00194833
0.00183833
0.00184772
0.00187385
0.00189771
0.001916
0.0019291
0.00193816
0.00194428
0.00194833
0.00195098
0.0019527
0.00195384
0.00195465
0.00195531
0.00195596
0.0019567
0.00195761
0.00195874
0.00196015
0.00196186
0.00196387
0.00196617
0.00196871
0.0019714
0.00197406
0.00197643
0.00197796
0.00197817
0.00197625
0.00197096
0.00196069
0.00194335
0.00191647
0.00187767
0.00182644
0.00177784
0.00179673
0.00259825
0.00321742
0.00195446
0.00184256
0.00185135
0.00187727
0.00190106
0.00191933
0.00193244
0.00194151
0.00194764
0.00195172
0.00195441
0.00195618
0.00195739
0.00195829
0.00195907
0.00195987
0.0019608
0.00196195
0.00196338
0.00196515
0.00196731
0.00196986
0.00197283
0.00197618
0.00197983
0.00198365
0.00198737
0.00199061
0.00199248
0.00199242
0.00198893
0.00198019
0.00196375
0.00193668
0.00189601
0.00184053
0.00178604
0.00179308
0.00255342
0.00323246
0.00196045
0.00184662
0.00185478
0.0018805
0.00190422
0.00192249
0.0019356
0.00194468
0.00195083
0.00195493
0.00195765
0.00195947
0.00196075
0.00196174
0.00196265
0.00196362
0.00196477
0.00196619
0.00196797
0.00197017
0.00197287
0.00197612
0.00197994
0.00198435
0.00198932
0.00199474
0.00200042
0.00200598
0.00201078
0.00201349
0.00201311
0.00200723
0.0019929
0.00196642
0.00192383
0.00186279
0.00179929
0.0017895
0.00249677
0.00324802
0.00196666
0.00185077
0.00185825
0.00188373
0.00190738
0.00192563
0.00193874
0.00194782
0.00195397
0.00195808
0.00196082
0.00196268
0.00196401
0.0019651
0.00196614
0.00196728
0.00196867
0.0019704
0.00197258
0.0019753
0.00197866
0.00198274
0.00198764
0.00199344
0.00200016
0.00200781
0.00201626
0.00202524
0.00203416
0.00204198
0.00204645
0.0020458
0.00203589
0.00201177
0.00196776
0.00189983
0.00182027
0.00178709
0.00242465
0.00326467
0.00197333
0.0018552
0.00186192
0.00188713
0.00191068
0.00192889
0.00194198
0.00195104
0.00195717
0.00196127
0.001964
0.00196588
0.00196726
0.00196843
0.00196959
0.00197092
0.00197255
0.00197462
0.00197725
0.00198056
0.00198469
0.00198979
0.00199604
0.00200359
0.00201263
0.0020233
0.00203566
0.00204963
0.00206481
0.0020802
0.00209396
0.00210189
0.00210069
0.00208261
0.00203881
0.00196142
0.00185496
0.00178643
0.00233059
0.00328283
0.00198062
0.00186002
0.0018659
0.0018908
0.00191423
0.00193237
0.0019454
0.00195441
0.0019605
0.00196455
0.00196726
0.00196912
0.00197052
0.00197175
0.00197302
0.00197452
0.00197641
0.00197883
0.00198194
0.00198591
0.00199093
0.00199724
0.00200512
0.00201489
0.00202693
0.00204166
0.00205946
0.00208065
0.00210521
0.00213251
0.00216072
0.0021859
0.00219939
0.00219445
0.0021546
0.0020626
0.00191273
0.00178574
0.00220297
0.00330283
0.00198869
0.00186536
0.0018703
0.00189484
0.0019181
0.00193614
0.00194908
0.001958
0.001964
0.00196796
0.00197059
0.00197241
0.00197379
0.00197505
0.00197641
0.00197806
0.00198019
0.00198297
0.00198658
0.00199127
0.00199729
0.00200499
0.00201482
0.00202732
0.00204319
0.00206328
0.00208854
0.00211997
0.0021584
0.002204
0.00225553
0.00230899
0.00235241
0.00236966
0.00234199
0.0022274
0.00200135
0.00177418
0.0020191
0.00332504
0.00199767
0.00187132
0.00187521
0.00189934
0.00192238
0.00194027
0.00195307
0.00196185
0.00196769
0.00197151
0.00197401
0.00197573
0.00197705
0.00197829
0.00197969
0.00198147
0.00198381
0.00198692
0.00199105
0.00199648
0.00200359
0.00201286
0.00202496
0.00204076
0.00206141
0.00208841
0.00212364
0.00216928
0.00222762
0.0023005
0.00238812
0.00248678
0.00258494
0.00263919
0.00263687
0.00248765
0.00212951
0.00171808
0.00173611
0.00334986
0.00200772
0.00187801
0.00188074
0.00190437
0.00192715
0.00194481
0.00195741
0.00196597
0.00197158
0.00197519
0.0019775
0.00197905
0.00198025
0.00198141
0.0019828
0.00198465
0.00198716
0.00199057
0.00199519
0.00200136
0.0020096
0.00202058
0.00203524
0.0020549
0.00208134
0.00211701
0.00216513
0.00222972
0.0023155
0.00242724
0.00256813
0.00273616
0.00291703
0.00304453
0.00307851
0.00289715
0.00237354
0.00166392
0.00140962
0.00337781
0.00201904
0.00188557
0.00188699
0.00191005
0.00193247
0.00194983
0.00196213
0.00197037
0.00197568
0.00197898
0.00198101
0.00198231
0.00198332
0.00198434
0.00198566
0.0019875
0.00199012
0.00199378
0.00199882
0.00200571
0.00201508
0.00202784
0.00204529
0.00206928
0.00210246
0.00214853
0.00221252
0.00230108
0.00242245
0.0025858
0.00279911
0.00306357
0.00336187
0.00361699
0.00373162
0.0036129
0.00305137
0.00205774
0.0014121
0.00340953
0.00203186
0.00189414
0.0018941
0.00191646
0.00193842
0.00195537
0.00196725
0.00197507
0.00197994
0.00198284
0.00198449
0.00198548
0.00198621
0.00198702
0.00198819
0.00198997
0.00199262
0.00199644
0.00200183
0.00200935
0.00201979
0.00203432
0.00205465
0.00208329
0.00212389
0.00218169
0.00226398
0.00238061
0.00254427
0.00276963
0.00307054
0.00345212
0.00389711
0.00436524
0.00483378
0.0051612
0.00504336
0.00400301
0.00249741
0.00344587
0.0020465
0.00190394
0.00190222
0.00192374
0.00194508
0.00196147
0.00197278
0.00198003
0.00198435
0.00198672
0.00198792
0.00198851
0.0019889
0.00198944
0.00199041
0.00199206
0.00199467
0.00199858
0.00200423
0.00201227
0.00202367
0.00203985
0.00206299
0.00209628
0.00214448
0.00221446
0.0023159
0.00246201
0.00266987
0.0029592
0.00334888
0.00385011
0.00447459
0.00532904
0.00676372
0.00838035
0.00898152
0.00840925
0.00614736
0.00348788
0.00206332
0.0019152
0.00191154
0.00193198
0.00195252
0.00196816
0.00197872
0.00198525
0.00198888
0.00199063
0.0019913
0.00199147
0.0019915
0.00199174
0.0019925
0.00199401
0.00199657
0.00200052
0.00200636
0.00201483
0.00202704
0.00204468
0.00207034
0.0021079
0.00216312
0.00224432
0.00236322
0.00253556
0.0027812
0.00312203
0.00357939
0.00417955
0.00503258
0.00662446
0.00963934
0.0124503
0.0135521
0.0137521
0.0120873
0.00353692
0.00208277
0.00192822
0.00192224
0.00194132
0.0019608
0.00197544
0.00198507
0.00199071
0.00199355
0.00199464
0.00199483
0.0019946
0.00199437
0.00199441
0.00199505
0.00199654
0.00199913
0.0020032
0.00200927
0.00201814
0.00203105
0.00204991
0.00207765
0.00211867
0.00217946
0.00226929
0.00240091
0.00259081
0.00285838
0.00322343
0.00370879
0.00437633
0.00552408
0.00796616
0.0120461
0.01532
0.0169789
0.0175822
0.0173584
0.00359466
0.00210541
0.00194329
0.00193451
0.00195187
0.00196996
0.00198338
0.00199192
0.00199661
0.00199869
0.00199929
0.00199914
0.00199873
0.00199848
0.00199864
0.00199951
0.00200129
0.00200424
0.00200871
0.00201525
0.0020247
0.00203838
0.0020583
0.00208762
0.00213101
0.00219525
0.00228972
0.00242677
0.00262123
0.00288774
0.00323808
0.00369282
0.00435494
0.00568441
0.00855818
0.0130208
0.017198
0.0197844
0.0207084
0.0209748
0.00366307
0.00213184
0.00196075
0.00194857
0.00196373
0.00198014
0.00199218
0.00199962
0.00200355
0.00200524
0.00200575
0.00200577
0.00200577
0.00200614
0.0020071
0.00200885
0.00201158
0.00201554
0.00202108
0.00202874
0.00203936
0.00205428
0.00207554
0.00210624
0.00215096
0.00221631
0.00231088
0.00244527
0.00263074
0.00287588
0.00318765
0.00357896
0.00416433
0.00545472
0.00843232
0.0132156
0.0188085
0.0230032
0.024296
0.0243016
0.00374435
0.00216271
0.00198092
0.00196461
0.00197712
0.00199168
0.00200249
0.00200929
0.00201319
0.00201538
0.00201682
0.00201816
0.00201981
0.00202204
0.00202505
0.00202901
0.00203407
0.00204044
0.00204845
0.00205861
0.00207171
0.00208904
0.00211255
0.00214516
0.00219106
0.00225592
0.00234696
0.00247229
0.00263882
0.00284778
0.00309217
0.00337859
0.00382448
0.00494989
0.00772918
0.0127764
0.019543
0.0260227
0.0280433
0.0272301
0.00384083
0.0021986
0.00200409
0.00198293
0.0019926
0.00200573
0.00201625
0.00202381
0.0020294
0.00203407
0.00203859
0.00204346
0.00204904
0.00205554
0.00206313
0.00207189
0.00208195
0.00209346
0.0021067
0.00212211
0.00214041
0.00216273
0.00219082
0.0022272
0.00227538
0.00233986
0.00242584
0.00253833
0.00267975
0.00284712
0.00302017
0.00319926
0.00348991
0.00434675
0.00678546
0.0119101
0.0197615
0.0285015
0.031909
0.0296511
0.00395581
0.00223996
0.00203063
0.0020043
0.00201188
0.00202535
0.00203824
0.00204986
0.00206087
0.00207189
0.00208353
0.00209621
0.0021102
0.00212564
0.00214261
0.00216116
0.00218136
0.0022033
0.0022272
0.00225338
0.00228241
0.00231521
0.00235316
0.00239819
0.00245286
0.00252014
0.0026028
0.00270235
0.00281676
0.00293857
0.00305734
0.00316211
0.00332266
0.00394414
0.00603494
0.0109953
0.0196957
0.0305132
0.0358052
0.0318861
0.00409093
0.00228689
0.00206134
0.00203098
0.00203969
0.00205848
0.00208004
0.00210257
0.00212611
0.0021511
0.00217789
0.00220677
0.0022379
0.00227138
0.00230723
0.00234548
0.00238615
0.0024293
0.00247499
0.00252342
0.00257491
0.00263003
0.00268966
0.00275494
0.00282718
0.00290752
0.00299602
0.00309038
0.00318433
0.00326636
0.00332466
0.00336318
0.0034653
0.00396828
0.00576006
0.0104408
0.0193762
0.0319645
0.0393068
0.0338032
0.00424775
0.00233928
0.002099
0.00206978
0.0020893
0.00212528
0.00216816
0.00221546
0.00226643
0.002321
0.00237929
0.0024415
0.00250782
0.00257835
0.00265318
0.00273237
0.00281595
0.00290389
0.00299608
0.00309237
0.00319272
0.00329713
0.0034057
0.00351844
0.00363506
0.00375446
0.00387367
0.00398637
0.00408188
0.00414488
0.00416256
0.00414866
0.00419937
0.0046182
0.00618348
0.010376
0.0192696
0.0334257
0.0423882
0.0356222
0.00442348
0.00239734
0.00215314
0.00214238
0.00219544
0.00227434
0.00236734
0.00247026
0.00258133
0.00269993
0.00282612
0.00296034
0.0031031
0.00325471
0.00341547
0.00358555
0.00376503
0.00395369
0.00415087
0.0043557
0.00456723
0.00478444
0.00500593
0.00522984
0.00545346
0.00567276
0.00588088
0.00606722
0.00621584
0.00630757
0.00632775
0.00630083
0.00633293
0.00670024
0.00809085
0.0118264
0.0201704
0.035307
0.0447893
0.0374108
0.00464369
0.0024727
0.0022559
0.00231076
0.00245483
0.00264151
0.00285556
0.00309054
0.00334335
0.00361281
0.00389921
0.00420389
0.00452834
0.00487305
0.00523817
0.00562356
0.00602867
0.0064525
0.00689243
0.00734566
0.00780905
0.00827914
0.00875155
0.00922135
0.00968186
0.0101253
0.0105393
0.0109088
0.0112112
0.0114241
0.0115257
0.0115415
0.0115866
0.0119037
0.0130835
0.0162806
0.023591
0.0384746
0.0469563
0.0388028
0.00483691
0.00260276
0.00251356
0.00278172
0.00318703
0.00366995
0.00421049
0.00479923
0.00542956
0.0060975
0.00680214
0.00754521
0.00832922
0.0091519
0.01001
0.0108988
0.0118138
0.01275
0.0137009
0.014661
0.0156233
0.0165811
0.0175269
0.0184528
0.0193458
0.0201964
0.0209837
0.0216925
0.0222888
0.022754
0.0230495
0.0231756
0.0232267
0.0234411
0.0242379
0.0266094
0.0320638
0.0444635
0.0494346
0.0395051
0.0052549
0.00293805
0.00337099
0.00439439
0.00566738
0.0070846
0.00862155
0.0102587
0.0119703
0.0137342
0.0155365
0.0173705
0.0192305
0.0211035
0.0229751
0.0248353
0.0266749
0.0284834
0.030255
0.0319876
0.0336723
0.0353084
0.0368996
0.038437
0.0398903
0.0412608
0.0425113
0.0436413
0.0445981
0.0453636
0.0458916
0.0461228
0.0460935
0.046104
0.0464456
0.0478211
0.049935
0.055699
0.0537483
0.0397342
0.00531737
0.00403297
0.00679932
0.010874
0.0152417
0.0196088
0.024021
0.0284555
0.0328344
0.0370854
0.0411652
0.0450543
0.0487238
0.0521777
0.0554128
0.0584521
0.0613021
0.0639816
0.0664886
0.0688466
0.0710411
0.0731095
0.0750075
0.0767833
0.0783952
0.0798858
0.0812059
0.0823569
0.0833281
0.0840045
0.0844704
0.0844174
0.0841583
0.0835201
0.0820046
0.0789388
0.0723836
0.0663254
0.0574872
0.0387281
0.00384838
0.00602236
0.00908987
0.0119807
0.0146623
0.01712
0.0193785
0.0214862
0.0234829
0.0253908
0.027216
0.0289788
0.0306639
0.0322731
0.0338092
0.0352799
0.0366917
0.0380481
0.0393579
0.0406137
0.0418396
0.0430016
0.0441579
0.0452312
0.046336
0.0473193
0.0483813
0.0492627
0.0502677
0.0510073
0.0518661
0.0523486
0.0527565
0.0526752
0.0524848
0.0520163
0.0510703
0.0493536
0.0459214
0.0366168
)
;

boundaryField
{
    movingWall
    {
        type            epsilonWallFunction;
        value           nonuniform List<scalar> 
40
(
0.00384838
0.00602236
0.00908987
0.0119807
0.0146623
0.01712
0.0193785
0.0214862
0.0234829
0.0253908
0.027216
0.0289788
0.0306639
0.0322731
0.0338092
0.0352799
0.0366917
0.0380481
0.0393579
0.0406137
0.0418396
0.0430016
0.0441579
0.0452312
0.046336
0.0473193
0.0483813
0.0492627
0.0502677
0.0510073
0.0518661
0.0523486
0.0527565
0.0526752
0.0524848
0.0520163
0.0510703
0.0493536
0.0459214
0.0366168
)
;
    }
    fixedWalls
    {
        type            epsilonWallFunction;
        value           nonuniform List<scalar> 
120
(
0.00032644
0.000929075
0.00155115
0.00203238
0.00238667
0.0026425
0.00282398
0.00295038
0.00303698
0.00309574
0.00313581
0.00316393
0.00318492
0.00320203
0.00321742
0.00323246
0.00324802
0.00326467
0.00328283
0.00330283
0.00332504
0.00334986
0.00337781
0.00340953
0.00344587
0.00348788
0.00353692
0.00359466
0.00366307
0.00374435
0.00384083
0.00395581
0.00409093
0.00424775
0.00442348
0.00464369
0.00483691
0.0052549
0.00531737
0.00384838
0.000326453
0.000918695
0.0014955
0.00192039
0.00221636
0.00241575
0.00254428
0.00262203
0.00266206
0.00267555
0.00267393
0.00265873
0.00263317
0.00259825
0.00255342
0.00249677
0.00242465
0.00233059
0.00220297
0.0020191
0.00173611
0.00140962
0.0014121
0.00249741
0.00614736
0.0120873
0.0173584
0.0209748
0.0243016
0.0272301
0.0296511
0.0318861
0.0338032
0.0356222
0.0374108
0.0388028
0.0395051
0.0397342
0.0387281
0.0366168
0.00032644
0.000919705
0.00150229
0.00193568
0.00224262
0.00245556
0.00260034
0.00269683
0.00276019
0.00280174
0.00282962
0.00284938
0.00286464
0.00287765
0.00288971
0.00290157
0.00291362
0.00292607
0.00293897
0.00295231
0.00296598
0.00297984
0.00299401
0.00300986
0.00302615
0.00304186
0.00305607
0.00306704
0.00307205
0.00306854
0.00305022
0.00301005
0.0029384
0.00282299
0.00264842
0.00239558
0.0020408
0.00155637
0.000929123
0.000326453
)
;
    }
    frontAndBack
    {
        type            empty;
    }
}


// ************************************************************************* //
