/*--------------------------------*- C++ -*----------------------------------*\
  =========                 |
  \\      /  F ield         | OpenFOAM: The Open Source CFD Toolbox
   \\    /   O peration     | Website:  https://openfoam.org
    \\  /    A nd           | Version:  12
     \\/     M anipulation  |
\*---------------------------------------------------------------------------*/
FoamFile
{
    format      ascii;
    class       volScalarField;
    location    "0.5";
    object      k;
}
// * * * * * * * * * * * * * * * * * * * * * * * * * * * * * * * * * * * * * //

dimensions      [0 2 -2 0 0 0 0];

internalField   nonuniform List<scalar> 
1600
(
2.46848e-05
7.02422e-05
0.00011509
0.000148527
0.000172267
0.000188782
0.000200046
0.000207578
0.000212541
0.000215806
0.000218002
0.000219561
0.000220765
0.00022179
0.000222739
0.000223672
0.00022462
0.000225599
0.000226615
0.000227666
0.000228743
0.000229836
0.000230953
0.000232197
0.000233481
0.000234718
0.000235835
0.000236691
0.000237076
0.000236785
0.000235327
0.000232155
0.000226526
0.000217496
0.000203887
0.000184238
0.00015675
0.000119316
7.09769e-05
2.46854e-05
7.0972e-05
0.000312162
0.000464624
0.000563633
0.000630934
0.000677192
0.000708845
0.000730272
0.000744632
0.000754239
0.000760771
0.000765404
0.000768934
0.000771875
0.000774542
0.000777125
0.00077973
0.000782414
0.000785201
0.000788098
0.000791088
0.000794133
0.000797165
0.000800039
0.00080276
0.000805265
0.000807337
0.000808485
0.000808433
0.000806251
0.000800892
0.00079094
0.000774535
0.000749269
0.000711984
0.000658385
0.000582232
0.000473332
0.000310809
7.01618e-05
0.000118897
0.000473491
0.000675936
0.00080527
0.000893682
0.000955038
0.000997467
0.00102648
0.00104607
0.00105918
0.00106798
0.00107402
0.00107839
0.0010818
0.00108471
0.00108741
0.00109006
0.00109275
0.00109553
0.00109841
0.00110138
0.00110442
0.00110747
0.00111046
0.00111327
0.00111571
0.00111738
0.00111784
0.00111642
0.00111203
0.00110334
0.00108856
0.00106544
0.00103102
0.000981495
0.000911621
0.000813636
0.000674134
0.000461426
0.00011455
0.00015607
0.000581783
0.000814747
0.000962662
0.00106442
0.00113579
0.00118576
0.00122037
0.00124402
0.00125997
0.00127067
0.00127793
0.00128302
0.00128681
0.00128989
0.00129262
0.00129522
0.00129781
0.00130047
0.00130321
0.00130605
0.00130895
0.00131186
0.00131467
0.00131721
0.00131921
0.00132018
0.00131965
0.00131668
0.0013101
0.00129839
0.00127958
0.00125119
0.00121004
0.00115199
0.00107139
0.000959678
0.000801463
0.000558314
0.000147312
0.000183513
0.000657813
0.000912542
0.00107403
0.00118573
0.00126477
0.00132072
0.00135991
0.00138699
0.00140541
0.00141782
0.00142619
0.00143194
0.00143608
0.00143929
0.00144201
0.00144451
0.00144696
0.00144944
0.001452
0.00145463
0.0014573
0.00145995
0.00146245
0.00146457
0.00146593
0.00146614
0.00146445
0.0014599
0.00145119
0.00143668
0.0014143
0.00138142
0.00133474
0.00126996
0.00118115
0.00105925
0.000887492
0.000623138
0.000170181
0.00020339
0.00071186
0.000982805
0.00115482
0.00127441
0.00135967
0.00142053
0.00146358
0.00149359
0.00151418
0.00152811
0.00153747
0.00154382
0.00154827
0.00155159
0.00155427
0.00155665
0.00155893
0.0015612
0.00156351
0.00156589
0.00156828
0.0015706
0.0015727
0.0015743
0.00157501
0.00157435
0.00157148
0.00156536
0.00155462
0.00153754
0.00151195
0.00147516
0.00142378
0.00135342
0.00125797
0.00112804
0.000945996
0.000666437
0.000185622
0.000217537
0.000750238
0.00103339
0.0012137
0.00133966
0.00143002
0.00149498
0.00154128
0.0015738
0.00159625
0.0016115
0.00162174
0.00162862
0.00163334
0.00163673
0.00163937
0.00164161
0.00164369
0.00164573
0.00164779
0.00164987
0.00165195
0.00165391
0.00165558
0.00165661
0.00165667
0.00165511
0.00165109
0.00164348
0.00163085
0.00161142
0.00158296
0.00154274
0.00148733
0.00141226
0.00131134
0.00117497
0.00098503
0.000694547
0.000195597
0.000227427
0.000777278
0.00106961
0.00125642
0.00138753
0.00148206
0.00155042
0.00159943
0.00163406
0.00165809
0.00167447
0.00168546
0.00169279
0.00169773
0.00170118
0.00170375
0.00170585
0.00170773
0.00170954
0.00171134
0.00171314
0.00171489
0.00171649
0.0017177
0.00171821
0.00171761
0.0017152
0.00171008
0.00170108
0.00168673
0.00166518
0.00163419
0.00159098
0.00153209
0.00145304
0.0013476
0.00120604
0.00101005
0.000711814
0.000201643
0.000234228
0.000796141
0.0010953
0.00128717
0.00142238
0.00152029
0.00159142
0.00164266
0.00167903
0.00170438
0.00172169
0.0017333
0.001741
0.00174612
0.0017496
0.0017521
0.00175406
0.00175576
0.00175734
0.0017589
0.00176043
0.00176189
0.00176314
0.00176392
0.00176396
0.00176274
0.00175954
0.00175342
0.00174318
0.00172729
0.00170386
0.00167064
0.00162482
0.00156295
0.00148053
0.00137133
0.00122563
0.00102499
0.000721055
0.000204753
0.000238861
0.000809199
0.00111339
0.00130912
0.00144754
0.00154814
0.00162148
0.00167451
0.00171229
0.00173868
0.00175675
0.00176886
0.00177686
0.0017821
0.0017856
0.00178803
0.00178987
0.0017914
0.00179279
0.00179414
0.00179544
0.00179663
0.00179758
0.00179801
0.00179763
0.00179586
0.00179198
0.00178499
0.00177365
0.0017564
0.00173134
0.00169617
0.00164809
0.00158364
0.00149836
0.00138602
0.00123689
0.00103246
0.000724401
0.000205789
0.000242029
0.000818249
0.00112609
0.00132471
0.00146559
0.00156827
0.00164334
0.00169777
0.00173664
0.00176386
0.00178251
0.001795
0.00180321
0.00180855
0.00181205
0.00181442
0.00181615
0.00181755
0.0018188
0.00181997
0.00182109
0.00182209
0.00182278
0.00182296
0.00182223
0.00182003
0.00181558
0.00180786
0.0017956
0.00177719
0.00175071
0.00171385
0.0016638
0.00159711
0.00150933
0.00139427
0.00124217
0.00103481
0.000724067
0.000205641
0.000244258
0.000824633
0.00113508
0.00133584
0.00147854
0.00158279
0.00165916
0.00171465
0.00175434
0.00178217
0.00180125
0.00181402
0.00182238
0.00182779
0.00183128
0.0018336
0.00183525
0.00183656
0.00183769
0.00183876
0.00183976
0.00184063
0.00184116
0.00184117
0.00184021
0.00183769
0.00183282
0.00182453
0.00181152
0.00179216
0.00176448
0.00172616
0.00167438
0.00160569
0.00151565
0.00139809
0.00124349
0.00103372
0.000720591
0.000204419
0.00024592
0.000829326
0.00114163
0.00134392
0.00148795
0.00159334
0.00167066
0.00172691
0.00176718
0.00179544
0.00181481
0.00182777
0.00183623
0.00184167
0.00184516
0.00184745
0.00184905
0.00185029
0.00185138
0.00185239
0.00185335
0.00185417
0.00185465
0.00185459
0.00185352
0.00185083
0.00184568
0.00183701
0.00182344
0.00180333
0.00177466
0.00173509
0.00168177
0.00161124
0.00151908
0.00139917
0.00124215
0.00102986
0.000714542
0.000202373
0.000247272
0.000833023
0.00114666
0.00135003
0.001495
0.00160118
0.00167916
0.00173592
0.00177658
0.00180511
0.00182467
0.00183773
0.00184624
0.0018517
0.00185517
0.00185744
0.00185903
0.00186026
0.00186134
0.00186237
0.00186336
0.00186422
0.00186474
0.00186473
0.00186369
0.00186098
0.00185576
0.00184689
0.00183299
0.00181234
0.00178292
0.00174229
0.00168759
0.00161532
0.00152105
0.00139869
0.00123892
0.00102381
0.000706102
0.000199576
0.000248483
0.000836196
0.0011508
0.00135493
0.00150054
0.00160725
0.00168565
0.00174273
0.00178362
0.0018123
0.00183194
0.00184504
0.00185357
0.00185902
0.00186248
0.00186475
0.00186635
0.00186761
0.00186874
0.00186985
0.00187093
0.00187193
0.00187262
0.00187277
0.00187191
0.00186937
0.00186426
0.00185544
0.00184145
0.00182055
0.00179062
0.00174918
0.00169326
0.00161929
0.00152276
0.00139757
0.0012345
0.00101584
0.000695103
0.000195983
0.000249662
0.000839162
0.00115451
0.00135917
0.00150521
0.00161225
0.00169089
0.00174813
0.00178912
0.00181784
0.00183748
0.00185057
0.00185907
0.0018645
0.00186796
0.00187024
0.00187187
0.00187319
0.00187442
0.00187566
0.00187693
0.00187815
0.00187913
0.00187957
0.00187906
0.00187688
0.00187214
0.00186364
0.00184989
0.00182907
0.00179899
0.00175704
0.00170013
0.00162451
0.0015255
0.00139692
0.00122949
0.00100596
0.000681017
0.000191434
0.000250879
0.000842129
0.00115808
0.00136313
0.00150944
0.00161667
0.00169541
0.00175269
0.00179366
0.00182234
0.00184192
0.00185494
0.00186339
0.00186879
0.00187224
0.00187453
0.00187621
0.00187763
0.001879
0.00188043
0.00188195
0.00188348
0.00188487
0.00188573
0.00188575
0.00188418
0.00188009
0.00187226
0.00185916
0.00183889
0.00180915
0.00176718
0.00170964
0.00163248
0.00153068
0.00139777
0.00122439
0.000993868
0.000662807
0.000185628
0.000252178
0.000845236
0.00116172
0.00136706
0.00151355
0.00162085
0.00169959
0.00175681
0.00179768
0.00182624
0.0018457
0.00185861
0.00186698
0.00187231
0.00187574
0.00187806
0.00187981
0.00188134
0.00188288
0.00188454
0.00188637
0.0018883
0.00189018
0.0018917
0.00189239
0.00189169
0.0018886
0.00188188
0.00186998
0.0018509
0.00182222
0.00178092
0.00172333
0.00164487
0.0015399
0.0014013
0.00121937
0.000978511
0.000638447
0.000178026
0.000253593
0.000848579
0.00116558
0.00137116
0.00151774
0.00162503
0.00170369
0.00176077
0.00180147
0.00182984
0.00184912
0.00186188
0.00187012
0.00187538
0.00187877
0.00188111
0.00188292
0.00188457
0.0018863
0.00188823
0.00189041
0.00189281
0.0018953
0.00189761
0.00189922
0.00189966
0.00189798
0.00189293
0.00188291
0.00186588
0.0018392
0.00179956
0.0017427
0.00166325
0.00155445
0.001408
0.00121306
0.000956456
0.000603529
0.000167645
0.000255151
0.000852235
0.00116975
0.00137554
0.00152217
0.00162939
0.00170789
0.00176475
0.0018052
0.00183332
0.00185236
0.00186492
0.001873
0.00187815
0.00188149
0.00188382
0.00188569
0.00188747
0.00188939
0.0018916
0.00189417
0.0018971
0.00190028
0.00190349
0.00190636
0.00190816
0.00190835
0.00190559
0.00189829
0.00188432
0.00186081
0.00182394
0.00176858
0.00168801
0.0015737
0.00141368
0.00119874
0.000917519
0.000547867
0.000152547
0.000256881
0.000856274
0.00117433
0.00138032
0.00152695
0.00163405
0.00171232
0.00176889
0.00180901
0.00183681
0.00185555
0.00186785
0.00187573
0.00188073
0.00188397
0.00188627
0.00188818
0.00189005
0.00189216
0.00189465
0.00189763
0.00190111
0.00190506
0.0019093
0.00191353
0.00191726
0.00191957
0.00191976
0.00191605
0.00190619
0.00188694
0.00185367
0.0017998
0.00171627
0.00158992
0.00140801
0.00115724
0.000837576
0.000450737
0.000129005
0.000258814
0.000860771
0.00117942
0.00138558
0.00153219
0.0016391
0.00171707
0.00177326
0.00181298
0.00184037
0.00185874
0.00187071
0.00187833
0.00188313
0.00188624
0.00188847
0.00189037
0.00189232
0.00189457
0.00189732
0.00190068
0.00190472
0.00190946
0.00191479
0.00192054
0.00192631
0.00193152
0.0019349
0.00193549
0.00193048
0.00191595
0.00188584
0.001831
0.00173665
0.00158764
0.00136359
0.00105234
0.000687703
0.000326221
0.000106239
0.000260989
0.000865813
0.0011851
0.00139145
0.00153798
0.00164463
0.0017222
0.00177792
0.00181713
0.00184402
0.00186193
0.0018735
0.00188078
0.00188533
0.00188825
0.00189036
0.00189221
0.00189418
0.00189653
0.00189948
0.00190317
0.00190773
0.00191322
0.00191966
0.00192696
0.0019349
0.00194302
0.00195041
0.00195492
0.00195478
0.00194394
0.00191377
0.00184993
0.0017329
0.00153825
0.00125042
0.00091755
0.000617315
0.000307889
0.000112403
0.000263458
0.000871508
0.00119149
0.00139801
0.00154441
0.0016507
0.00172776
0.00178287
0.00182145
0.00184773
0.00186508
0.00187617
0.00188305
0.00188726
0.00188994
0.00189187
0.00189361
0.00189553
0.00189792
0.00190099
0.00190494
0.00190991
0.00191606
0.0019235
0.00193227
0.00194228
0.00195319
0.00196412
0.00197231
0.00197507
0.00196452
0.00192706
0.00184209
0.00168081
0.00142432
0.00114227
0.000926769
0.000769336
0.000491294
0.000217518
0.000266285
0.000877986
0.00119873
0.00140538
0.00155155
0.00165736
0.00173376
0.00178812
0.00182592
0.00185145
0.00186813
0.00187863
0.00188502
0.00188885
0.00189122
0.00189291
0.00189448
0.00189629
0.00189863
0.00190173
0.00190581
0.00191107
0.00191772
0.00192595
0.00193592
0.00194763
0.00196076
0.0019742
0.00198414
0.00198665
0.00196986
0.00191414
0.00179089
0.00157409
0.00130936
0.00122321
0.00131333
0.00134334
0.000995078
0.000532838
0.000269553
0.000885408
0.00120696
0.00141369
0.0015595
0.00166463
0.00174018
0.00179358
0.00183043
0.00185507
0.00187095
0.00188078
0.00188661
0.00188998
0.00189199
0.0018934
0.00189474
0.00189638
0.0018986
0.00190165
0.00190574
0.00191113
0.00191807
0.00192681
0.00193756
0.00195033
0.00196465
0.00197891
0.00198733
0.00198526
0.001955
0.00186983
0.00169511
0.00145459
0.00139427
0.00166659
0.00198436
0.00203517
0.0016185
0.001003
0.000273367
0.000893964
0.00121636
0.00142304
0.00156829
0.00167251
0.00174693
0.00179916
0.00183485
0.00185844
0.00187341
0.00188248
0.0018877
0.00189059
0.00189223
0.00189335
0.00189447
0.00189594
0.00189802
0.00190096
0.001905
0.00191039
0.00191741
0.00192632
0.00193732
0.00195033
0.00196453
0.00197723
0.0019824
0.00197114
0.0019202
0.00179865
0.00158551
0.00146584
0.00160619
0.00222432
0.00254731
0.00260555
0.00215636
0.00139316
0.000277855
0.00090387
0.00122709
0.00143351
0.0015779
0.00168088
0.00175388
0.00180465
0.00183898
0.00186138
0.00187537
0.00188365
0.00188827
0.00189072
0.00189204
0.00189294
0.00189387
0.00189519
0.00189716
0.00190002
0.001904
0.00190936
0.00191637
0.00192529
0.00193622
0.00194886
0.00196198
0.0019708
0.00197033
0.00194558
0.00187264
0.00172117
0.00152403
0.00148579
0.00182991
0.00261002
0.00303282
0.00314941
0.00267188
0.00166608
0.000283169
0.000915352
0.00123929
0.00144513
0.00158824
0.00168955
0.00176077
0.00180982
0.00184263
0.00186377
0.00187678
0.00188435
0.00188848
0.00189065
0.00189181
0.00189264
0.00189358
0.00189496
0.00189701
0.00189997
0.00190405
0.00190952
0.00191661
0.00192552
0.0019362
0.00194797
0.00195879
0.00196359
0.00195558
0.00191807
0.00182666
0.00165537
0.00148637
0.00148863
0.00193239
0.00279008
0.0034551
0.00368893
0.00322643
0.00192396
0.000289477
0.000928617
0.00125301
0.00145778
0.00159907
0.00169824
0.00176731
0.00181445
0.00184569
0.00186565
0.00187785
0.00188497
0.00188892
0.00189108
0.00189241
0.0018935
0.00189478
0.00189655
0.00189903
0.00190244
0.001907
0.00191294
0.00192048
0.00192972
0.00194045
0.00195178
0.00196063
0.00196252
0.00194796
0.00190089
0.00179866
0.00162306
0.00146316
0.00147297
0.00192985
0.00283706
0.00376008
0.00416884
0.00374625
0.00214504
0.000296955
0.0009438
0.00126819
0.0014712
0.00161002
0.00170657
0.00177327
0.0018185
0.00184839
0.00186754
0.00187942
0.00188658
0.00189086
0.0018936
0.00189567
0.00189767
0.00189997
0.00190283
0.00190648
0.00191111
0.00191695
0.00192419
0.00193301
0.00194342
0.00195504
0.00196665
0.00197439
0.00197453
0.00195705
0.00190694
0.00180479
0.00163802
0.00147771
0.00147651
0.0019001
0.00283065
0.00392064
0.00456701
0.00423783
0.00233156
0.000305858
0.000960826
0.00128455
0.00148496
0.00162065
0.00171432
0.00177878
0.00182257
0.00185179
0.00187098
0.0018834
0.00189154
0.00189718
0.00190157
0.00190553
0.00190961
0.00191414
0.00191937
0.00192552
0.00193275
0.00194128
0.0019513
0.00196295
0.00197616
0.00199038
0.00200412
0.00201323
0.00201367
0.00199548
0.00194515
0.00184738
0.00169664
0.0015448
0.00153811
0.00191791
0.00281858
0.00398762
0.00488271
0.00468807
0.00250313
0.000316313
0.000979521
0.00130162
0.00149851
0.00163075
0.00172186
0.00178499
0.00182863
0.00185869
0.0018794
0.00189402
0.00190492
0.0019138
0.00192182
0.00192973
0.00193802
0.00194704
0.00195699
0.00196807
0.00198044
0.00199427
0.00200975
0.002027
0.00204587
0.0020657
0.00208483
0.00209935
0.00210403
0.00209017
0.00204552
0.00195882
0.00183015
0.00169972
0.00170125
0.00201778
0.00282279
0.00400956
0.00510667
0.00505325
0.0026501
0.000328445
0.000999472
0.00131878
0.00151168
0.00164113
0.00173139
0.00179559
0.00184167
0.00187523
0.00190045
0.00192043
0.00193745
0.0019531
0.00196845
0.00198422
0.00200088
0.00201875
0.00203801
0.0020588
0.00208122
0.0021054
0.00213146
0.00215946
0.00218918
0.0022199
0.00224985
0.00227558
0.00229095
0.00228838
0.00225701
0.00218864
0.00208475
0.00197894
0.00198536
0.00223274
0.00291021
0.00404722
0.00526783
0.00534662
0.00279111
0.000342029
0.00102003
0.00133587
0.00152598
0.00165594
0.00174987
0.00181974
0.00187332
0.00191595
0.00195157
0.00198316
0.00201293
0.00204243
0.00207268
0.00210435
0.00213787
0.00217356
0.00221158
0.00225185
0.00229427
0.0023388
0.00238547
0.00243412
0.00248432
0.00253521
0.00258505
0.00263072
0.0026665
0.00268443
0.00267476
0.00263193
0.00255293
0.00246466
0.00245974
0.00263392
0.00315677
0.00416752
0.00542483
0.00551746
0.00292887
0.000359115
0.00104198
0.0013553
0.00154932
0.00168833
0.00179513
0.00188122
0.00195367
0.00201738
0.00207606
0.00213259
0.00218931
0.0022479
0.00230916
0.00237355
0.00244136
0.00251282
0.00258806
0.00266636
0.00274709
0.00282982
0.00291459
0.00300051
0.00308669
0.00317204
0.00325487
0.00333188
0.00339825
0.00344671
0.00346737
0.00345398
0.00340823
0.00333571
0.00330543
0.00340138
0.00374576
0.0045044
0.00564065
0.00562218
0.00303548
0.000374137
0.00106642
0.00139183
0.00160789
0.00177793
0.00192213
0.00205038
0.00216881
0.00228157
0.00239187
0.00250246
0.00261586
0.00273432
0.00285755
0.00298501
0.00311612
0.00325092
0.00339028
0.00353141
0.00367296
0.00381384
0.0039524
0.00408767
0.00421932
0.00434641
0.00446779
0.00458066
0.00468161
0.00476423
0.00482131
0.00484038
0.00482416
0.00477631
0.00471688
0.00473068
0.00487526
0.00525714
0.00599565
0.00570712
0.00308867
0.000406664
0.00111488
0.00149684
0.00179914
0.00206656
0.00231302
0.00254698
0.0027732
0.00299383
0.0032104
0.00342468
0.00363902
0.00385876
0.00407929
0.00429769
0.00451267
0.00472307
0.00492613
0.00512294
0.00531384
0.00549847
0.00567652
0.00584665
0.00600933
0.0061634
0.006309
0.00644318
0.00656478
0.00666807
0.00674868
0.00679935
0.00680015
0.00677638
0.00672058
0.00664535
0.00663453
0.00658593
0.00654427
0.00574683
0.00310574
0.000412266
0.00121008
0.00184742
0.00244954
0.0029788
0.00345575
0.00389743
0.00431155
0.00469889
0.00505977
0.00539604
0.00571067
0.00599897
0.00626549
0.0065132
0.00674549
0.00696386
0.00716956
0.00736294
0.00754575
0.0077175
0.00788002
0.00803245
0.00817708
0.00831127
0.00843681
0.00855078
0.00865246
0.00874041
0.00880547
0.0088549
0.00885344
0.00883367
0.00877433
0.00862604
0.00831542
0.00768886
0.00684405
0.00554401
0.0030228
0.000298206
0.000467403
0.000705989
0.000930923
0.00113969
0.00133109
0.00150704
0.00167131
0.00182695
0.00197575
0.00211808
0.00225562
0.00238717
0.00251281
0.00263276
0.0027476
0.00285786
0.00296378
0.00306612
0.00316419
0.00326002
0.0033508
0.00344122
0.00352511
0.00361154
0.00368847
0.00377156
0.00384059
0.00391913
0.00397706
0.00404393
0.00408171
0.00411317
0.00410733
0.0040906
0.00405841
0.00398129
0.00384976
0.00358283
0.00285858
)
;

boundaryField
{
    movingWall
    {
        type            kqRWallFunction;
        value           nonuniform List<scalar> 
40
(
0.000298206
0.000467403
0.000705989
0.000930923
0.00113969
0.00133109
0.00150704
0.00167131
0.00182695
0.00197575
0.00211808
0.00225562
0.00238717
0.00251281
0.00263276
0.0027476
0.00285786
0.00296378
0.00306612
0.00316419
0.00326002
0.0033508
0.00344122
0.00352511
0.00361154
0.00368847
0.00377156
0.00384059
0.00391913
0.00397706
0.00404393
0.00408171
0.00411317
0.00410733
0.0040906
0.00405841
0.00398129
0.00384976
0.00358283
0.00285858
)
;
    }
    fixedWalls
    {
        type            kqRWallFunction;
        value           nonuniform List<scalar> 
120
(
2.46848e-05
7.0972e-05
0.000118897
0.00015607
0.000183513
0.00020339
0.000217537
0.000227427
0.000234228
0.000238861
0.000242029
0.000244258
0.00024592
0.000247272
0.000248483
0.000249662
0.000250879
0.000252178
0.000253593
0.000255151
0.000256881
0.000258814
0.000260989
0.000263458
0.000266285
0.000269553
0.000273367
0.000277855
0.000283169
0.000289477
0.000296955
0.000305858
0.000316313
0.000328445
0.000342029
0.000359115
0.000374137
0.000406664
0.000412266
0.000298206
2.46854e-05
7.01618e-05
0.00011455
0.000147312
0.000170181
0.000185622
0.000195597
0.000201643
0.000204753
0.000205789
0.000205641
0.000204419
0.000202373
0.000199576
0.000195983
0.000191434
0.000185628
0.000178026
0.000167645
0.000152547
0.000129005
0.000106239
0.000112403
0.000217518
0.000532838
0.001003
0.00139316
0.00166608
0.00192396
0.00214504
0.00233156
0.00250313
0.0026501
0.00279111
0.00292887
0.00303548
0.00308867
0.00310574
0.0030228
0.00285858
2.46848e-05
7.02422e-05
0.00011509
0.000148527
0.000172267
0.000188782
0.000200046
0.000207578
0.000212541
0.000215806
0.000218002
0.000219561
0.000220765
0.00022179
0.000222739
0.000223672
0.00022462
0.000225599
0.000226615
0.000227666
0.000228743
0.000229836
0.000230953
0.000232197
0.000233481
0.000234718
0.000235835
0.000236691
0.000237076
0.000236785
0.000235327
0.000232155
0.000226526
0.000217496
0.000203887
0.000184238
0.00015675
0.000119316
7.09769e-05
2.46854e-05
)
;
    }
    frontAndBack
    {
        type            empty;
    }
}


// ************************************************************************* //
