/*--------------------------------*- C++ -*----------------------------------*\
  =========                 |
  \\      /  F ield         | OpenFOAM: The Open Source CFD Toolbox
   \\    /   O peration     | Website:  https://openfoam.org
    \\  /    A nd           | Version:  12
     \\/     M anipulation  |
\*---------------------------------------------------------------------------*/
FoamFile
{
    format      ascii;
    class       volScalarField;
    location    "0.5";
    object      nut;
}
// * * * * * * * * * * * * * * * * * * * * * * * * * * * * * * * * * * * * * //

dimensions      [0 2 -1 0 0 0 0];

internalField   nonuniform List<scalar> 
1600
(
1.67996e-07
4.82825e-07
7.93532e-07
1.0257e-06
1.19094e-06
1.30621e-06
1.38507e-06
1.43798e-06
1.47295e-06
1.49603e-06
1.51159e-06
1.52266e-06
1.5312e-06
1.53847e-06
1.54519e-06
1.55179e-06
1.5585e-06
1.56543e-06
1.57262e-06
1.58007e-06
1.58771e-06
1.59547e-06
1.60338e-06
1.61216e-06
1.62127e-06
1.63003e-06
1.63793e-06
1.64395e-06
1.64661e-06
1.64444e-06
1.634e-06
1.61147e-06
1.57169e-06
1.50812e-06
1.41265e-06
1.27524e-06
1.08357e-06
8.23248e-07
4.87982e-07
1.67998e-07
4.87939e-07
9.18341e-06
1.59819e-05
2.00978e-05
2.28276e-05
2.47239e-05
2.60596e-05
2.69988e-05
2.76545e-05
2.81113e-05
2.84336e-05
2.86693e-05
2.88527e-05
2.90076e-05
2.91491e-05
2.92868e-05
2.94266e-05
2.95717e-05
2.97238e-05
2.98834e-05
3.00498e-05
3.02197e-05
3.0386e-05
3.05319e-05
3.06641e-05
3.07846e-05
3.08826e-05
3.09357e-05
3.09308e-05
3.08233e-05
3.05698e-05
3.01118e-05
2.93758e-05
2.82684e-05
2.66672e-05
2.43982e-05
2.11917e-05
1.6514e-05
9.11084e-06
4.8225e-07
8.20217e-07
1.65048e-05
3.03955e-05
3.92984e-05
4.53364e-05
4.95899e-05
5.26139e-05
5.47492e-05
5.62398e-05
5.72702e-05
5.79825e-05
5.84844e-05
5.88544e-05
5.91472e-05
5.93993e-05
5.96335e-05
5.98635e-05
6.00973e-05
6.03386e-05
6.05889e-05
6.08469e-05
6.11088e-05
6.13678e-05
6.16131e-05
6.18388e-05
6.20302e-05
6.21539e-05
6.21805e-05
6.20481e-05
6.16777e-05
6.09719e-05
5.98085e-05
5.80369e-05
5.54707e-05
5.18688e-05
4.68924e-05
4.00023e-05
3.02494e-05
1.57574e-05
7.89675e-07
1.07864e-06
2.11456e-05
4.00909e-05
5.2835e-05
6.17295e-05
6.80746e-05
7.26208e-05
7.58562e-05
7.81281e-05
7.9702e-05
8.07849e-05
8.15358e-05
8.2073e-05
8.24804e-05
8.28146e-05
8.31121e-05
8.33955e-05
8.36775e-05
8.39649e-05
8.42602e-05
8.45624e-05
8.48676e-05
8.51684e-05
8.54532e-05
8.5704e-05
8.58918e-05
8.59694e-05
8.58897e-05
8.55534e-05
8.4851e-05
8.36415e-05
8.17518e-05
7.89727e-05
7.50494e-05
6.96602e-05
6.23663e-05
5.25006e-05
3.89221e-05
1.97222e-05
1.01702e-06
1.26994e-06
2.43401e-05
4.69556e-05
6.26743e-05
7.387e-05
8.19797e-05
8.78602e-05
9.20841e-05
9.50723e-05
9.71523e-05
9.85836e-05
9.95681e-05
0.000100259
0.000100765
0.000101164
0.000101505
0.000101819
0.000102124
0.000102431
0.000102743
0.000103059
0.000103376
0.000103683
0.000103963
0.000104192
0.000104321
0.000104312
0.000104073
0.000103491
0.000102429
0.000100711
9.81273e-05
9.4429e-05
8.93179e-05
8.24251e-05
7.32613e-05
6.11062e-05
4.47005e-05
2.22964e-05
1.17605e-06
1.40892e-06
2.66263e-05
5.19561e-05
6.99835e-05
8.30374e-05
9.26172e-05
9.96386e-05
0.000104728
0.000108355
0.000110895
0.000112645
0.000113843
0.000114671
0.000115262
0.000115711
0.000116079
0.000116406
0.000116716
0.000117022
0.000117329
0.000117637
0.00011794
0.000118226
0.000118474
0.000118648
0.000118695
0.000118565
0.000118141
0.000117298
0.000115873
0.000113667
0.000110445
0.000105931
9.98038e-05
9.16703e-05
8.10202e-05
6.71168e-05
4.86643e-05
2.40179e-05
1.28366e-06
1.50816e-06
2.82785e-05
5.56362e-05
7.5445e-05
8.99787e-05
0.000100762
0.00010874
0.00011457
0.000118755
0.0001217
0.000123734
0.000125123
0.000126072
0.000126734
0.00012722
0.000127603
0.00012793
0.000128231
0.000128522
0.00012881
0.000129093
0.000129367
0.000129615
0.000129811
0.000129907
0.000129862
0.000129592
0.000128974
0.000127869
0.000126095
0.000123436
0.000119642
0.000114422
0.000107442
9.83033e-05
8.64911e-05
7.1269e-05
5.13563e-05
2.5148e-05
1.35333e-06
1.57778e-06
2.94703e-05
5.83381e-05
7.95074e-05
9.52015e-05
0.000106951
0.000115714
0.000122163
0.000126821
0.000130114
0.000132393
0.000133946
0.000134997
0.000135718
0.00013623
0.000136618
0.000136936
0.00013722
0.000137486
0.000137744
0.000137994
0.000138227
0.000138425
0.000138557
0.000138573
0.000138421
0.000138006
0.000137197
0.00013584
0.000133742
0.000130676
0.00012638
0.000120559
0.000112878
0.000102939
9.02352e-05
7.40428e-05
5.31008e-05
2.58457e-05
1.39564e-06
1.62584e-06
3.03232e-05
6.03041e-05
8.24982e-05
9.90862e-05
0.000111596
0.000120987
0.00012794
0.000132987
0.000136568
0.000139052
0.000140741
0.000141876
0.000142641
0.000143171
0.000143556
0.00014386
0.00014412
0.000144357
0.000144581
0.000144791
0.000144978
0.000145122
0.000145182
0.00014512
0.000144857
0.000144301
0.00014331
0.000141719
0.000139328
0.000135901
0.000131174
0.000124851
0.000116601
0.000106035
9.26619e-05
7.57749e-05
5.4132e-05
2.6202e-05
1.41737e-06
1.6587e-06
3.09281e-05
6.1719e-05
8.46731e-05
0.000101937
0.000115031
0.000124912
0.000132263
0.000137619
0.000141432
0.000144079
0.000145877
0.000147077
0.000147875
0.000148414
0.000148792
0.000149078
0.000149312
0.000149518
0.000149706
0.000149875
0.000150016
0.000150105
0.0001501
0.000149957
0.00014959
0.000148899
0.000147741
0.000145939
0.000143286
0.000139545
0.000134451
0.000127712
0.000119004
0.000107953
9.4086e-05
7.67111e-05
5.45959e-05
2.62886e-05
1.42453e-06
1.68124e-06
3.13554e-05
6.27292e-05
8.62383e-05
0.000104002
0.000117535
0.000127789
0.000135443
0.000141038
0.000145028
0.000147802
0.000149681
0.000150929
0.000151749
0.000152291
0.000152659
0.000152926
0.000153134
0.00015331
0.000153464
0.000153596
0.000153694
0.000153729
0.000153666
0.000153448
0.000152987
0.000152174
0.000150864
0.000148872
0.000145989
0.000141976
0.000136569
0.000129483
0.000120406
0.000108979
9.47468e-05
7.70312e-05
5.4643e-05
2.62004e-05
1.42336e-06
1.69712e-06
3.16597e-05
6.3451e-05
8.73604e-05
0.000105488
0.000119342
0.000129869
0.000137748
0.000143518
0.00014764
0.000150505
0.000152443
0.000153723
0.000154556
0.000155095
0.000155452
0.000155701
0.000155886
0.000156035
0.00015616
0.000156259
0.00015632
0.000156308
0.000156196
0.000155912
0.000155368
0.000154444
0.000153
0.000150839
0.000147753
0.0001435
0.000137822
0.000130442
0.000121061
0.000109336
9.48291e-05
7.6907e-05
5.43869e-05
2.59402e-05
1.41453e-06
1.70896e-06
3.18826e-05
6.39752e-05
8.81718e-05
0.00010656
0.000120642
0.000131364
0.000139401
0.000145296
0.000149508
0.000152434
0.000154411
0.000155711
0.000156549
0.000157083
0.000157429
0.000157661
0.000157827
0.000157954
0.000158055
0.000158128
0.000158158
0.000158111
0.000157956
0.000157618
0.000157002
0.000155984
0.000154414
0.000152105
0.000148835
0.000144366
0.000138445
0.000130805
0.000121161
0.00010919
9.44789e-05
7.64311e-05
5.3853e-05
2.55312e-05
1.3998e-06
1.71857e-06
3.20548e-05
6.43705e-05
8.87748e-05
0.000107346
0.000121588
0.000132443
0.000140587
0.000146562
0.000150832
0.000153797
0.000155794
0.000157103
0.00015794
0.000158468
0.000158803
0.000159021
0.000159172
0.000159283
0.000159367
0.000159421
0.00015943
0.000159356
0.000159167
0.000158784
0.000158108
0.000157009
0.000155325
0.000152878
0.000149437
0.000144765
0.000138614
0.000130728
0.00012084
0.000108649
9.3771e-05
7.56349e-05
5.30625e-05
2.49743e-05
1.37968e-06
1.72714e-06
3.21982e-05
6.46876e-05
8.92456e-05
0.000107947
0.000122296
0.000133238
0.000141448
0.000147471
0.000151773
0.000154755
0.000156761
0.00015807
0.000158902
0.000159423
0.000159748
0.000159955
0.000160096
0.000160196
0.000160269
0.000160311
0.000160306
0.000160216
0.000160001
0.000159583
0.000158857
0.000157686
0.000155904
0.000153312
0.00014971
0.000144833
0.000138449
0.000130312
0.000120173
0.000107758
9.27149e-05
7.45212e-05
5.19998e-05
2.42517e-05
1.3538e-06
1.73546e-06
3.2328e-05
6.49619e-05
8.96391e-05
0.000108433
0.000122854
0.000133848
0.000142094
0.00014814
0.000152453
0.000155438
0.000157441
0.000158744
0.000159568
0.00016008
0.000160396
0.000160596
0.00016073
0.000160825
0.000160892
0.000160929
0.000160918
0.000160822
0.000160586
0.000160142
0.000159373
0.000158137
0.000156259
0.000153535
0.00014974
0.00014466
0.000138019
0.000129602
0.00011918
0.00010651
9.1289e-05
7.30342e-05
5.06175e-05
2.33253e-05
1.32099e-06
1.74402e-06
3.24542e-05
6.52179e-05
8.99938e-05
0.000108857
0.000123323
0.000134345
0.000142605
0.000148654
0.000152962
0.000155939
0.000157931
0.000159222
0.000160036
0.000160538
0.000160848
0.000161042
0.000161173
0.000161266
0.000161333
0.00016137
0.000161359
0.000161264
0.000161014
0.000160549
0.000159743
0.000158444
0.000156469
0.000153603
0.000149613
0.000144258
0.000137342
0.000128584
0.00011781
0.000104817
8.93591e-05
7.10176e-05
4.88387e-05
2.21243e-05
1.27902e-06
1.75314e-06
3.25836e-05
6.54723e-05
9.0336e-05
0.000109253
0.000123748
0.00013478
0.000143037
0.000149075
0.000153367
0.000156325
0.000158299
0.000159574
0.000160375
0.000160868
0.000161171
0.000161362
0.000161491
0.000161586
0.000161657
0.000161699
0.000161693
0.0001616
0.000161353
0.000160862
0.000160021
0.000158658
0.000156575
0.000153546
0.000149324
0.00014366
0.000136321
0.000127165
0.000115916
0.000102475
8.66817e-05
6.82253e-05
4.64558e-05
2.05355e-05
1.2239e-06
1.76307e-06
3.27209e-05
6.57365e-05
9.06836e-05
0.000109645
0.000124158
0.000135187
0.000143429
0.000149444
0.00015371
0.000156642
0.000158593
0.000159849
0.000160634
0.000161116
0.000161412
0.000161601
0.000161731
0.000161829
0.000161906
0.000161956
0.000161958
0.00016187
0.000161628
0.000161117
0.000160233
0.000158797
0.000156587
0.000153357
0.000148837
0.000142761
0.000134889
0.000125042
0.000113202
9.90987e-05
8.2809e-05
6.4209e-05
4.30447e-05
1.83578e-05
1.1482e-06
1.77399e-06
3.28696e-05
6.60185e-05
9.10492e-05
0.000110051
0.000124572
0.00013559
0.000143807
0.000149789
0.000154021
0.00015692
0.000158842
0.000160075
0.000160843
0.000161313
0.000161601
0.000161787
0.000161917
0.00016202
0.000162104
0.000162163
0.000162174
0.000162093
0.000161849
0.000161336
0.000160385
0.000158855
0.00015648
0.000152981
0.000148053
0.000141395
0.000132744
0.000121919
0.000109013
9.40591e-05
7.67998e-05
5.80628e-05
3.78573e-05
1.52264e-05
1.03727e-06
1.78611e-06
3.30328e-05
6.6325e-05
9.14425e-05
0.000110482
0.000125006
0.000136004
0.000144187
0.000150128
0.000154317
0.000157178
0.000159066
0.000160271
0.000161018
0.000161474
0.000161754
0.000161935
0.000162066
0.000162172
0.000162263
0.00016233
0.000162349
0.000162272
0.000162022
0.000161481
0.000160486
0.000158794
0.000156191
0.000152315
0.000146802
0.000139295
0.000129494
0.000117234
0.000102556
8.62024e-05
6.76654e-05
4.84511e-05
2.96491e-05
1.06426e-05
8.62731e-07
1.79966e-06
3.32135e-05
6.66621e-05
9.18714e-05
0.000110947
0.00012547
0.00013644
0.000144579
0.000150471
0.00015461
0.000157424
0.000159273
0.000160446
0.000161169
0.000161608
0.000161876
0.000162051
0.00016218
0.000162288
0.000162383
0.000162455
0.000162478
0.0001624
0.000162133
0.000161547
0.000160455
0.000158606
0.000155624
0.000151207
0.000144853
0.000136113
0.000124634
0.000110276
9.30524e-05
7.4512e-05
5.43588e-05
3.44022e-05
1.79328e-05
5.75617e-06
7.20627e-07
1.8149e-06
3.34154e-05
6.70362e-05
9.23436e-05
0.000111455
0.000125969
0.000136903
0.00014499
0.000150822
0.000154902
0.000157662
0.000159465
0.000160601
0.000161296
0.000161713
0.000161968
0.000162134
0.000162257
0.000162363
0.000162457
0.000162529
0.000162549
0.000162458
0.000162157
0.000161499
0.000160263
0.000158145
0.000154742
0.000149476
0.000141966
0.000131527
0.000117761
0.000100537
8.0391e-05
5.88776e-05
3.77102e-05
2.09723e-05
1.12399e-05
4.14611e-06
8.05255e-07
1.83219e-06
3.36427e-05
6.74546e-05
9.28664e-05
0.000112012
0.000126511
0.000137398
0.00014542
0.000151181
0.000155192
0.000157889
0.000159638
0.000160731
0.000161392
0.000161785
0.00016202
0.000162173
0.000162286
0.000162384
0.000162471
0.000162535
0.000162541
0.000162422
0.000162065
0.000161298
0.000159858
0.000157377
0.000153358
0.000147064
0.000137989
0.000125411
0.000108847
8.8467e-05
6.52435e-05
4.18261e-05
2.42935e-05
1.49774e-05
1.05622e-05
5.42675e-06
1.70506e-06
1.85199e-06
3.39005e-05
6.79253e-05
9.34477e-05
0.000112624
0.000127097
0.000137923
0.000145866
0.000151542
0.000155471
0.000158095
0.000159782
0.000160823
0.000161444
0.000161806
0.000162018
0.000162151
0.000162248
0.000162331
0.000162403
0.000162448
0.000162427
0.000162261
0.000161822
0.000160904
0.000159197
0.000156252
0.000151463
0.000143912
0.000133044
0.000118016
9.84671e-05
7.49732e-05
4.98364e-05
2.8954e-05
1.99096e-05
1.85238e-05
1.80828e-05
1.05974e-05
4.15666e-06
1.87487e-06
3.41951e-05
6.84568e-05
9.40948e-05
0.000113295
0.000127727
0.000138474
0.000146319
0.000151892
0.000155724
0.000158263
0.000159875
0.000160854
0.000161427
0.000161751
0.000161932
0.000162037
0.000162109
0.000162168
0.000162215
0.000162231
0.000162167
0.000161937
0.000161391
0.000160289
0.000158263
0.000154785
0.000149139
0.000140188
0.000127539
0.000110179
8.79102e-05
6.18742e-05
3.78386e-05
2.64112e-05
2.59329e-05
2.84644e-05
2.75066e-05
1.71435e-05
7.49057e-06
1.90156e-06
3.45336e-05
6.90579e-05
9.48131e-05
0.000114024
0.000128394
0.000139037
0.000146759
0.000152207
0.000155924
0.00015836
0.000159881
0.000160787
0.0001613
0.000161575
0.000161714
0.000161785
0.000161826
0.000161852
0.000161864
0.000161838
0.00016172
0.000161412
0.000160742
0.000159435
0.000157076
0.000153063
0.000146549
0.000136518
0.000122337
0.000102948
7.85064e-05
5.16975e-05
3.50068e-05
2.91467e-05
3.69649e-05
3.81195e-05
3.59859e-05
2.38019e-05
1.00632e-05
1.93295e-06
3.49235e-05
6.97364e-05
9.56035e-05
0.000114802
0.000129079
0.000139583
0.000147148
0.000152442
0.000156016
0.000158322
0.000159735
0.000160552
0.000160989
0.000161202
0.000161284
0.0001613
0.000161287
0.000161263
0.000161224
0.000161144
0.000160966
0.000160581
0.000159803
0.000158332
0.000155712
0.000151304
0.000144045
0.000133296
0.000117974
9.74688e-05
7.21992e-05
4.80006e-05
3.49519e-05
3.52144e-05
4.70861e-05
4.81346e-05
4.5121e-05
3.10263e-05
1.19107e-05
1.9701e-06
3.53723e-05
7.04958e-05
9.64582e-05
0.000115609
0.000129745
0.000140061
0.000147423
0.000152517
0.000155905
0.000158049
0.000159325
0.000160025
0.000160362
0.000160482
0.000160483
0.000160426
0.000160343
0.00016025
0.000160143
0.000159995
0.000159746
0.000159286
0.000158428
0.00015686
0.000154092
0.000149431
0.000141911
0.000130833
0.000115134
9.42081e-05
6.8909e-05
4.77476e-05
3.65632e-05
3.98551e-05
5.30137e-05
5.71227e-05
5.32419e-05
3.85613e-05
1.37088e-05
2.01415e-06
3.58854e-05
7.13321e-05
9.73534e-05
0.000116398
0.000130322
0.000140377
0.000147464
0.000152291
0.000155434
0.000157362
0.000158451
0.000158987
0.000159175
0.00015916
0.000159034
0.000158853
0.000158652
0.000158446
0.000158231
0.000157984
0.000157652
0.000157129
0.000156233
0.000154666
0.000151978
0.00014741
0.000140208
0.000129418
0.000114195
9.41625e-05
7.01742e-05
5.03797e-05
3.94486e-05
4.33665e-05
5.66982e-05
6.51098e-05
6.01063e-05
4.50408e-05
1.52077e-05
2.06633e-06
3.64633e-05
7.22262e-05
9.82383e-05
0.00011708
0.000130682
0.000140362
0.000147062
0.000151517
0.000154318
0.000155941
0.000156757
0.000157041
0.000156997
0.000156763
0.000156429
0.000156051
0.000155661
0.000155276
0.000154899
0.000154513
0.000154075
0.000153498
0.000152622
0.000151182
0.000148767
0.000144626
0.000138236
0.000128633
0.000114951
9.70656e-05
7.54796e-05
5.63129e-05
4.51387e-05
4.78869e-05
6.05481e-05
7.0006e-05
6.58624e-05
5.06543e-05
1.65005e-05
2.12837e-06
3.7093e-05
7.31338e-05
9.90163e-05
0.000117495
0.000130595
0.000139712
0.000145842
0.000149753
0.00015206
0.000153225
0.000153616
0.000153509
0.0001531
0.000152522
0.00015186
0.000151169
0.000150483
0.000149823
0.000149197
0.000148602
0.000148013
0.00014737
0.000146556
0.000145359
0.000143439
0.000140148
0.000135044
0.000127229
0.000115882
0.000100464
8.19302e-05
6.46399e-05
5.39842e-05
5.4856e-05
6.50271e-05
7.26605e-05
7.03195e-05
5.52438e-05
1.76851e-05
2.20117e-06
3.77593e-05
7.39704e-05
9.9508e-05
0.000117342
0.000129626
0.000137861
0.000143134
0.000146241
0.000147782
0.000148243
0.000147993
0.000147298
0.000146345
0.000145259
0.000144122
0.000142986
0.000141887
0.000140848
0.000139886
0.000139011
0.000138219
0.000137484
0.000136737
0.000135839
0.000134543
0.000132394
0.000128924
0.000123478
0.000115288
0.000103868
8.96323e-05
7.50337e-05
6.56408e-05
6.36157e-05
6.86854e-05
7.46737e-05
7.34261e-05
5.84677e-05
1.86987e-05
2.28565e-06
3.84328e-05
7.45719e-05
9.9366e-05
0.000116018
0.000126945
0.000133834
0.000137785
0.00013964
0.000140049
0.000139506
0.000138371
0.000136897
0.000135254
0.000133554
0.00013187
0.000130251
0.000128729
0.000127327
0.000126063
0.000124954
0.000124011
0.000123232
0.000122591
0.000122011
0.00012134
0.000120311
0.000118493
0.000115462
0.000110611
0.000103569
9.42846e-05
8.39315e-05
7.68152e-05
7.25579e-05
7.34616e-05
7.65037e-05
7.47179e-05
6.06955e-05
1.96823e-05
2.38015e-06
3.90607e-05
7.45936e-05
9.78239e-05
0.000112411
0.000121171
0.000125893
0.000127856
0.000127987
0.000126958
0.000125247
0.000123185
0.000120988
0.000118794
0.000116688
0.000114723
0.000112932
0.000111338
0.000109946
0.000108761
0.00010779
0.000107043
0.000106522
0.000106211
0.000106071
0.000106019
0.000105913
0.000105472
0.000104339
0.000102083
9.85236e-05
9.30943e-05
8.63283e-05
8.12699e-05
7.71711e-05
7.58362e-05
7.74966e-05
7.50159e-05
6.11712e-05
2.0637e-05
2.49946e-06
3.95173e-05
7.32816e-05
9.34913e-05
0.000104505
0.000109795
0.00011154
0.00011115
0.000109556
0.000107368
0.000104974
0.000102614
0.000100429
9.84807e-05
9.67965e-05
9.5388e-05
9.42633e-05
9.3425e-05
9.28339e-05
9.24609e-05
9.22915e-05
9.23445e-05
9.25862e-05
9.29894e-05
9.35324e-05
9.41675e-05
9.48005e-05
9.52748e-05
9.53676e-05
9.4716e-05
9.31565e-05
9.05815e-05
8.64303e-05
8.26069e-05
7.95841e-05
7.75625e-05
7.74053e-05
7.44262e-05
6.05839e-05
2.13714e-05
2.60457e-06
3.93243e-05
6.93626e-05
8.36454e-05
8.92656e-05
9.06044e-05
8.98627e-05
8.82089e-05
8.62869e-05
8.44437e-05
8.28576e-05
8.16207e-05
8.0786e-05
8.03004e-05
8.01125e-05
8.0185e-05
8.05131e-05
8.11343e-05
8.19197e-05
8.28154e-05
8.37907e-05
8.47915e-05
8.58004e-05
8.68289e-05
8.78857e-05
8.89517e-05
8.99947e-05
9.09334e-05
9.16519e-05
9.19422e-05
9.14829e-05
9.03762e-05
8.83975e-05
8.54229e-05
8.30989e-05
8.03903e-05
7.75758e-05
7.27631e-05
5.92986e-05
2.17336e-05
2.83237e-06
3.80749e-05
5.98189e-05
6.62939e-05
6.78201e-05
6.7965e-05
6.77185e-05
6.74704e-05
6.73892e-05
6.75392e-05
6.79404e-05
6.86117e-05
6.96864e-05
7.09672e-05
7.23529e-05
7.37973e-05
7.52642e-05
7.66766e-05
7.80699e-05
7.94471e-05
8.08079e-05
8.2135e-05
8.33749e-05
8.45562e-05
8.5707e-05
8.68212e-05
8.78899e-05
8.88762e-05
8.97277e-05
9.03591e-05
9.06661e-05
9.02327e-05
8.96599e-05
8.81691e-05
8.55724e-05
8.28406e-05
7.81756e-05
6.92017e-05
5.53013e-05
2.18478e-05
2.87675e-06
3.26772e-05
4.51763e-05
4.96618e-05
5.23952e-05
5.48123e-05
5.69126e-05
5.87953e-05
6.05206e-05
6.213e-05
6.36592e-05
6.51449e-05
6.64746e-05
6.77124e-05
6.89002e-05
7.006e-05
7.11979e-05
7.23058e-05
7.33835e-05
7.44329e-05
7.54547e-05
7.64404e-05
7.74165e-05
7.8374e-05
7.93027e-05
8.01918e-05
8.10338e-05
8.1813e-05
8.25116e-05
8.30701e-05
8.35422e-05
8.35669e-05
8.34503e-05
8.29621e-05
8.16635e-05
7.88352e-05
7.35065e-05
6.35607e-05
4.81193e-05
2.12341e-05
2.07968e-06
3.26481e-06
4.93492e-06
6.51012e-06
7.97291e-06
9.31446e-06
1.0548e-05
1.17002e-05
1.27922e-05
1.38366e-05
1.48356e-05
1.58013e-05
1.67256e-05
1.76085e-05
1.84514e-05
1.92585e-05
2.00335e-05
2.0778e-05
2.14976e-05
2.21868e-05
2.2861e-05
2.34993e-05
2.41357e-05
2.47257e-05
2.53343e-05
2.5876e-05
2.6461e-05
2.69476e-05
2.75e-05
2.79084e-05
2.83769e-05
2.86431e-05
2.88616e-05
2.88241e-05
2.86935e-05
2.84981e-05
2.79332e-05
2.70266e-05
2.51582e-05
2.00846e-05
)
;

boundaryField
{
    movingWall
    {
        type            nutkWallFunction;
        Cmu             0.09;
        kappa           0.41;
        E               9.8;
        value           uniform 0;
    }
    fixedWalls
    {
        type            nutkWallFunction;
        Cmu             0.09;
        kappa           0.41;
        E               9.8;
        value           uniform 0;
    }
    frontAndBack
    {
        type            empty;
    }
}


// ************************************************************************* //
