/*--------------------------------*- C++ -*----------------------------------*\
  =========                 |
  \\      /  F ield         | OpenFOAM: The Open Source CFD Toolbox
   \\    /   O peration     | Website:  https://openfoam.org
    \\  /    A nd           | Version:  12
     \\/     M anipulation  |
\*---------------------------------------------------------------------------*/
FoamFile
{
    format      ascii;
    class       volScalarField;
    location    "0.5";
    object      p;
}
// * * * * * * * * * * * * * * * * * * * * * * * * * * * * * * * * * * * * * //

dimensions      [0 2 -2 0 0 0 0];

internalField   nonuniform List<scalar> 
1600
(
1.52613e-08
-3.52004e-06
-6.81996e-06
-8.30017e-06
-6.76788e-06
-1.54352e-06
7.73637e-06
2.1239e-05
3.90183e-05
6.10678e-05
8.73518e-05
0.000117823
0.000152433
0.000191131
0.000233866
0.000280577
0.000331187
0.000385593
0.000443657
0.000505193
0.000569952
0.000637575
0.000707749
0.000780055
0.000853736
0.000928174
0.00100256
0.00107599
0.00114742
0.00121574
0.00127976
0.00133826
0.00139004
0.00143399
0.00146918
0.00149503
0.0015115
0.00151936
0.00152061
0.00151783
3.51194e-06
-2.91521e-08
-2.44008e-06
-2.66592e-06
6.93497e-08
6.1968e-06
1.60426e-05
2.98099e-05
4.76032e-05
6.94652e-05
9.54026e-05
0.000125402
0.000159439
0.000197483
0.000239491
0.000285413
0.000335176
0.00038868
0.000445789
0.000506319
0.000570024
0.000636593
0.000705685
0.000776746
0.000849257
0.000922531
0.000995782
0.00106812
0.00113855
0.00120602
0.00126938
0.00132749
0.00137922
0.00142356
0.00145968
0.00148706
0.00150554
0.00151541
0.00151782
0.00151508
6.88808e-06
2.28988e-06
-2.66139e-07
5.67441e-07
4.73371e-06
1.20722e-05
2.2759e-05
3.70032e-05
5.49521e-05
7.66995e-05
0.000102302
0.00013179
0.000165174
0.000202452
0.000243604
0.000288597
0.000337371
0.000389839
0.000445876
0.000505308
0.000567906
0.000633376
0.000701361
0.000771369
0.000842859
0.00091518
0.000987579
0.0010592
0.0011291
0.00119625
0.00125961
0.00131808
0.00137063
0.00141633
0.0014544
0.00148426
0.0015055
0.00151741
0.00151999
0.00151627
8.32678e-06
2.17014e-06
-1.90599e-06
-1.35348e-06
3.33554e-06
1.13831e-05
2.26903e-05
3.73676e-05
5.55328e-05
7.7284e-05
0.000102699
0.000131837
0.00016474
0.000201434
0.00024193
0.000286219
0.000334266
0.000386007
0.000441338
0.000500109
0.000562112
0.000627076
0.000694653
0.000764399
0.000835785
0.000908186
0.000980876
0.00105303
0.00112372
0.00119198
0.00125674
0.00131695
0.00137156
0.0014196
0.00146017
0.00149252
0.00151573
0.00152811
0.00152915
0.00152359
6.43604e-06
-1.36345e-06
-7.52323e-06
-8.19407e-06
-3.88652e-06
4.19311e-06
1.56769e-05
3.05348e-05
4.88093e-05
7.05632e-05
9.58656e-05
0.000124783
0.000157377
0.000193698
0.000233784
0.000277655
0.000325307
0.000376707
0.000431781
0.00049041
0.000552418
0.000617565
0.00068553
0.000755905
0.00082819
0.000901785
0.00097598
0.00104996
0.00112282
0.00119355
0.00126107
0.00132427
0.00138199
0.00143311
0.00147655
0.00151122
0.0015357
0.00154762
0.00154652
0.00153894
4.04963e-07
-8.84452e-06
-1.70223e-05
-1.92392e-05
-1.58154e-05
-8.18721e-06
3.08185e-06
1.78354e-05
3.60336e-05
5.76894e-05
8.28476e-05
0.00011157
0.000143927
0.000179987
0.000219815
0.00026346
0.000310953
0.000362297
0.000417455
0.000476349
0.000538842
0.000604731
0.000673737
0.000745489
0.00081952
0.000895253
0.000971995
0.00104893
0.00112513
0.00119954
0.00127101
0.0013383
0.0014001
0.00145506
0.00150182
0.00153896
0.00156462
0.001576
0.00157291
0.00156349
-1.01676e-05
-2.06222e-05
-3.05768e-05
-3.43773e-05
-3.20764e-05
-2.5205e-05
-1.44471e-05
-5.12959e-08
1.78727e-05
3.92894e-05
6.42158e-05
9.27031e-05
0.000124824
0.000160664
0.000200311
0.000243846
0.000291337
0.000342827
0.000398326
0.000457801
0.000521163
0.00058826
0.00065886
0.000732638
0.000809163
0.000887888
0.00096813
0.00104907
0.00112973
0.001209
0.0012856
0.00135812
0.00142504
0.00148474
0.00153553
0.00157565
0.00160282
0.00161393
0.0016092
0.00159813
-2.54178e-05
-3.68647e-05
-4.83563e-05
-5.36798e-05
-5.26081e-05
-4.6685e-05
-3.66571e-05
-2.28318e-05
-5.36995e-06
1.56534e-05
4.02296e-05
6.8399e-05
0.000100236
0.000135841
0.000175324
0.000218801
0.000266378
0.000318147
0.000374167
0.000434461
0.000498999
0.000567689
0.000640355
0.000716731
0.000796432
0.000878943
0.0009636
0.00104957
0.00113583
0.00122117
0.00130416
0.0013832
0.00145648
0.00152204
0.00157784
0.00162172
0.00165102
0.00166232
0.00165626
0.00164368
-4.53192e-05
-5.76061e-05
-7.04373e-05
-7.71978e-05
-7.73936e-05
-7.25386e-05
-6.34031e-05
-5.03259e-05
-3.35006e-05
-1.30307e-05
1.10556e-05
3.87901e-05
7.02508e-05
0.000105551
0.000144828
0.000188232
0.000235914
0.000288014
0.000344654
0.00040592
0.000471852
0.000542428
0.000617547
0.00069701
0.000780494
0.000867532
0.000957486
0.00104951
0.00114254
0.00123525
0.00132604
0.00141305
0.00149415
0.001567
0.00162909
0.00167782
0.00171009
0.00172216
0.00171507
0.001701
-6.97574e-05
-8.27913e-05
-9.68218e-05
-0.000104939
-0.000106411
-0.000102702
-9.45843e-05
-8.24072e-05
-6.63821e-05
-4.66304e-05
-2.31927e-05
3.95838e-06
3.49067e-05
6.9782e-05
0.000108749
0.000151995
0.000199719
0.000252121
0.000309387
0.000371679
0.000439118
0.000511769
0.000589621
0.000672561
0.000760351
0.000852589
0.00094868
0.00104779
0.0011488
0.00125028
0.00135044
0.00144713
0.00153783
0.0016197
0.00168973
0.00174474
0.00178109
0.00179462
0.00178673
0.00177113
-9.85793e-05
-0.00011231
-0.000127456
-0.000136873
-0.000139623
-0.00013712
-0.000130124
-0.000118984
-0.000103918
-8.50557e-05
-6.24441e-05
-3.60557e-05
-5.79799e-06
2.84777e-05
6.69657e-05
0.000109895
0.000157517
0.000210094
0.00026789
0.000331149
0.000400089
0.00047488
0.00055562
0.000642304
0.000734815
0.000832836
0.000935848
0.00104305
0.00115331
0.00126509
0.00137639
0.00148473
0.00158715
0.00168024
0.00176028
0.00182341
0.00186525
0.00188105
0.00187258
0.00185534
-0.000131611
-0.000146023
-0.000162249
-0.000172937
-0.000176974
-0.000175732
-0.000169955
-0.000159984
-0.000146036
-0.000128244
-0.000106657
-8.12418e-05
-5.18958e-05
-1.84488e-05
1.93256e-05
6.17003e-05
0.000108984
0.000161508
0.000219619
0.00028366
0.000353958
0.000430807
0.00051444
0.000605002
0.000702488
0.000806748
0.000917373
0.00103364
0.00115444
0.00127814
0.00140257
0.00152489
0.00164161
0.0017486
0.00184131
0.0019149
0.00196404
0.00198313
0.0019743
0.00195517
-0.00016867
-0.000183774
-0.000201083
-0.000213042
-0.000218391
-0.00021847
-0.00021401
-0.000205341
-0.000192677
-0.00017615
-0.000155806
-0.000131608
-0.000103438
-7.11044e-05
-3.43469e-05
7.15368e-06
5.37658e-05
0.000105897
0.000163982
0.000228474
0.000299825
0.000378473
0.000464813
0.000559165
0.00066172
0.000772507
0.000891295
0.00101751
0.00115011
0.00128747
0.00142724
0.00156622
0.00170033
0.00182458
0.00193331
0.00202043
0.00207923
0.0021029
0.00209393
0.00207257
-0.000209573
-0.0002254
-0.000243825
-0.000257083
-0.000263785
-0.000265255
-0.000262216
-0.000254989
-0.000243784
-0.000228731
-0.000209874
-0.000187168
-0.000160483
-0.000129604
-9.42364e-05
-5.40145e-05
-8.50826e-06
4.27681e-05
0.000100347
0.000164798
0.000236714
0.000316698
0.000405335
0.000503162
0.000610613
0.000727967
0.000855247
0.000992111
0.00113771
0.00129048
0.001448
0.00160673
0.00176195
0.00190762
0.00203669
0.00214135
0.00221293
0.00224289
0.00223401
0.0022099
-0.000254137
-0.000270736
-0.000290334
-0.000304941
-0.000313054
-0.000315998
-0.000314494
-0.000308858
-0.000299299
-0.000285945
-0.00026884
-0.000247934
-0.000223085
-0.000194056
-0.000160521
-0.000122068
-7.82072e-05
-2.83731e-05
2.80665e-05
9.18054e-05
0.00016359
0.000244206
0.000334459
0.000435144
0.000546994
0.000670616
0.000806386
0.000954318
0.00111388
0.00128376
0.00146156
0.00164352
0.00182424
0.00199652
0.0021515
0.00227902
0.00236763
0.00240619
0.00239764
0.00236996
-0.000302187
-0.000319618
-0.000340464
-0.00035649
-0.00036609
-0.000370602
-0.000370755
-0.000366868
-0.000359151
-0.000347737
-0.000332671
-0.000313902
-0.000291278
-0.000264547
-0.000233353
-0.000197244
-0.000155673
-0.000107999
-5.34907e-05
8.67254e-06
7.93962e-05
0.000159666
0.000250529
0.000353082
0.000468419
0.00059755
0.000741338
0.000900296
0.0010744
0.00126279
0.00146338
0.00167235
0.00188374
0.00208903
0.00227712
0.00243467
0.00254618
0.00259651
0.00258851
0.00255588
-0.000353549
-0.000371881
-0.000394065
-0.000411596
-0.000422771
-0.000428956
-0.000430898
-0.000428925
-0.000423256
-0.000414033
-0.000401309
-0.000385037
-0.000365062
-0.000341121
-0.000312839
-0.000279729
-0.000241194
-0.000196527
-0.000144903
-8.53826e-05
-1.68995e-05
6.17356e-05
0.000151835
0.00025482
0.000372199
0.000505488
0.00065616
0.000825405
0.00101396
0.00122173
0.00144725
0.00168711
0.001935
0.0021811
0.00241161
0.00260892
0.00275163
0.00281821
0.00281085
0.0027709
-0.000408053
-0.000427363
-0.000450989
-0.000470124
-0.000482971
-0.00049094
-0.000494807
-0.000494916
-0.000491504
-0.000484729
-0.000474661
-0.000461263
-0.000444386
-0.000423765
-0.000399014
-0.000369625
-0.000334966
-0.000294274
-0.000246649
-0.000191042
-0.000126242
-5.08599e-05
3.66797e-05
0.000138144
0.000255495
0.00039085
0.000546352
0.00072414
0.000925994
0.00115297
0.00140477
0.00167893
0.00196953
0.00226571
0.00255056
0.00280087
0.00298661
0.0030759
0.00306905
0.0030177
-0.000465534
-0.000485906
-0.000511086
-0.000531935
-0.00054656
-0.000556426
-0.000562351
-0.000564707
-0.000563756
-0.000559685
-0.000552587
-0.000542445
-0.000529128
-0.000512379
-0.000491817
-0.000466927
-0.000437059
-0.000401417
-0.000359048
-0.000308821
-0.000249404
-0.000179237
-9.65014e-05
9.10788e-07
0.000115415
0.000249753
0.000406931
0.000590139
0.000802557
0.00104687
0.00132466
0.00163527
0.00197429
0.0023309
0.00268499
0.00300623
0.00325195
0.00337348
0.00336657
0.00329701
-0.000525827
-0.000547357
-0.000574216
-0.000596894
-0.000613402
-0.000625274
-0.000633382
-0.000638137
-0.000639839
-0.000638714
-0.000634889
-0.000628379
-0.000619082
-0.000606766
-0.000591066
-0.000571484
-0.000547374
-0.000517937
-0.000482198
-0.000438985
-0.000386889
-0.000324227
-0.000248988
-0.000158776
-5.07514e-05
7.84346e-05
0.000232677
0.000416349
0.000634376
0.000891537
0.00119213
0.0015386
0.00192963
0.00235676
0.00279778
0.00321369
0.00354409
0.00371314
0.00370412
0.00360553
-0.000588779
-0.000611571
-0.000640246
-0.000664874
-0.000683364
-0.000697337
-0.000707734
-0.000715019
-0.000719542
-0.000721579
-0.000721304
-0.000718779
-0.000713943
-0.000706602
-0.000696432
-0.000682969
-0.000665604
-0.000643567
-0.000615908
-0.000581462
-0.000538811
-0.000486225
-0.000421588
-0.000342317
-0.00024525
-0.000126531
1.85417e-05
0.000195634
0.000411188
0.000672885
0.000988493
0.00136503
0.00180671
0.00231083
0.00285755
0.00339982
0.00385232
0.00409075
0.0040694
0.00393134
-0.000654245
-0.000678421
-0.000709061
-0.000735762
-0.000756321
-0.000772469
-0.000785231
-0.000795139
-0.00080261
-0.000807985
-0.000811497
-0.000813268
-0.00081329
-0.00081143
-0.000807419
-0.000800857
-0.0007912
-0.00077775
-0.000759632
-0.000735758
-0.000704781
-0.000665027
-0.00061441
-0.000550318
-0.000469466
-0.000367707
-0.000239798
-7.90989e-05
0.000122677
0.000375329
0.000691386
0.00108346
0.00156421
0.00214182
0.00280945
0.00351795
0.00413661
0.00444929
0.00439529
0.00424374
-0.000722109
-0.000747809
-0.000780581
-0.000809472
-0.000832166
-0.000850525
-0.000865682
-0.000878257
-0.000888749
-0.000897578
-0.000905055
-0.00091137
-0.000916586
-0.000920643
-0.000923352
-0.000924398
-0.00092334
-0.000919593
-0.000912416
-0.000900872
-0.000883783
-0.000859665
-0.000826627
-0.000782256
-0.00072343
-0.000646094
-0.00054492
-0.000412846
-0.000240538
-1.58495e-05
0.000276347
0.00065581
0.0011451
0.00177074
0.00255316
0.00343932
0.00422721
0.00460221
0.00454805
0.0045054
-0.000792289
-0.000819681
-0.000854769
-0.000885961
-0.000910821
-0.000931375
-0.000948894
-0.000964108
-0.00097762
-0.000989945
-0.00100148
-0.00101251
-0.00102317
-0.00103348
-0.00104337
-0.00105261
-0.00106092
-0.00106785
-0.00107286
-0.00107524
-0.00107409
-0.00106826
-0.00105626
-0.00103614
-0.00100532
-0.000960358
-0.000896567
-0.000807412
-0.000683956
-0.000513856
-0.000280066
3.98638e-05
0.00047622
0.00107468
0.00187737
0.00282191
0.00369261
0.00419732
0.00439846
0.00472886
-0.000864767
-0.000894052
-0.000931662
-0.000965248
-0.00099225
-0.00101491
-0.00103467
-0.0010524
-0.00106884
-0.00108461
-0.00110021
-0.001116
-0.00113224
-0.00114904
-0.00116642
-0.0011843
-0.00120255
-0.00122092
-0.00123911
-0.00125672
-0.00127323
-0.00128797
-0.00130003
-0.00130825
-0.00131101
-0.0013061
-0.00129038
-0.00125924
-0.00120624
-0.00112193
-0.000992554
-0.000800619
-0.000523957
-0.000129367
0.000419246
0.00117125
0.00204281
0.00290322
0.00378426
0.00471056
-0.000939613
-0.000971036
-0.0010114
-0.00104744
-0.00107648
-0.00110105
-0.00112281
-0.00114283
-0.00116197
-0.00118101
-0.00120056
-0.00122108
-0.0012429
-0.00126626
-0.00129129
-0.00131805
-0.00134658
-0.00137687
-0.0014089
-0.00144263
-0.00147801
-0.00151495
-0.00155336
-0.00159307
-0.00163386
-0.00167536
-0.00171695
-0.0017575
-0.00179567
-0.00182908
-0.00185438
-0.00187373
-0.00190617
-0.00195213
-0.00189653
-0.00157709
-0.000788369
0.00060419
0.0022645
0.00363205
-0.00101704
-0.0010509
-0.00109426
-0.00113274
-0.0011636
-0.00118974
-0.00121312
-0.00123503
-0.00125653
-0.00127855
-0.00130179
-0.00132685
-0.00135413
-0.00138398
-0.00141662
-0.00145229
-0.00149119
-0.00153354
-0.00157965
-0.00162985
-0.00168463
-0.00174458
-0.00181051
-0.00188347
-0.00196488
-0.00205667
-0.00216143
-0.00228291
-0.00242683
-0.00260132
-0.00281918
-0.00311465
-0.00356588
-0.00418473
-0.00474797
-0.00486383
-0.00413498
-0.00243458
-0.000326974
0.00109637
-0.00109746
-0.00113411
-0.00118071
-0.00122153
-0.0012538
-0.00128095
-0.00130536
-0.0013286
-0.00135195
-0.00137649
-0.00140306
-0.00143234
-0.00146482
-0.00150091
-0.00154096
-0.00158533
-0.00163438
-0.0016886
-0.00174855
-0.00181501
-0.00188898
-0.00197174
-0.00206505
-0.00217123
-0.00229343
-0.00243601
-0.00260502
-0.00280939
-0.00306239
-0.00338389
-0.00380502
-0.00439168
-0.00525658
-0.0063891
-0.00744192
-0.00784206
-0.00720162
-0.00557868
-0.00340083
-0.0019361
-0.00118158
-0.00122144
-0.0012715
-0.00131434
-0.00134733
-0.00137466
-0.00139925
-0.00142302
-0.00144752
-0.00147399
-0.00150339
-0.00153646
-0.00157374
-0.00161571
-0.00166279
-0.00171544
-0.00177417
-0.00183968
-0.00191281
-0.00199472
-0.00208688
-0.00219125
-0.00231045
-0.00244797
-0.00260856
-0.00279874
-0.00302762
-0.0033083
-0.00366026
-0.00411282
-0.00470938
-0.0055242
-0.0066749
-0.00810943
-0.00940588
-0.00994286
-0.00943744
-0.00805535
-0.00622072
-0.00462644
-0.00127056
-0.00131409
-0.00136768
-0.00141189
-0.00144448
-0.00147076
-0.00149434
-0.0015176
-0.00154236
-0.00157004
-0.00160166
-0.001638
-0.00167962
-0.00172699
-0.00178058
-0.00184091
-0.00190862
-0.00198455
-0.00206979
-0.0021658
-0.00227449
-0.00239834
-0.00254072
-0.00270607
-0.00290037
-0.00313171
-0.00341129
-0.00375456
-0.00418386
-0.00473234
-0.00544581
-0.00639134
-0.00765077
-0.00915218
-0.0104939
-0.0110856
-0.010732
-0.0096116
-0.00819396
-0.00660512
-0.00136624
-0.00141387
-0.00147074
-0.00151507
-0.0015455
-0.00156893
-0.00158991
-0.00161132
-0.00163529
-0.00166334
-0.00169653
-0.00173559
-0.00178104
-0.0018333
-0.00189282
-0.00196014
-0.00203595
-0.00212121
-0.00221716
-0.00232552
-0.00244851
-0.00258901
-0.00275092
-0.00293937
-0.00316113
-0.00342518
-0.00374349
-0.00413204
-0.00461244
-0.00521379
-0.00597664
-0.00695528
-0.00817753
-0.00957093
-0.0108187
-0.011403
-0.0111594
-0.0102273
-0.00914643
-0.00751992
-0.00147154
-0.00152347
-0.0015827
-0.00162486
-0.00165038
-0.00166843
-0.00168473
-0.00170267
-0.00172463
-0.0017522
-0.00178634
-0.00182764
-0.00187647
-0.00193314
-0.00199802
-0.00207159
-0.00215455
-0.00224788
-0.00235292
-0.00247159
-0.00260627
-0.00276009
-0.00293728
-0.00314338
-0.00338558
-0.00367312
-0.00401778
-0.00443451
-0.00494201
-0.00556335
-0.00632699
-0.00726006
-0.00836167
-0.00956205
-0.010634
-0.0111434
-0.0109405
-0.0100449
-0.0091833
-0.00740257
-0.00159112
-0.00164693
-0.00170613
-0.00174205
-0.00175846
-0.00176765
-0.00177664
-0.00178921
-0.00180791
-0.00183424
-0.00186893
-0.00191222
-0.00196415
-0.00202486
-0.00209459
-0.00217369
-0.00226282
-0.00236294
-0.00247544
-0.002602
-0.00274543
-0.00290904
-0.00309692
-0.00331491
-0.0035703
-0.00387225
-0.00423192
-0.00466263
-0.00517956
-0.00579849
-0.00653314
-0.00738879
-0.0083451
-0.00933218
-0.0101678
-0.0105406
-0.0102712
-0.00921434
-0.00858233
-0.00635539
-0.00173286
-0.00179035
-0.00184404
-0.00186654
-0.00186748
-0.00186305
-0.00186132
-0.00186668
-0.00188122
-0.00190618
-0.00194157
-0.0019868
-0.00204168
-0.00210621
-0.00218038
-0.00226435
-0.00235865
-0.00246418
-0.00258227
-0.00271459
-0.00286392
-0.00303359
-0.00322774
-0.00345211
-0.00371388
-0.004022
-0.00438693
-0.00482033
-0.00533405
-0.00593738
-0.00663228
-0.00740637
-0.00822143
-0.0089965
-0.00957772
-0.00972417
-0.00923838
-0.00791744
-0.00740811
-0.0043935
-0.00190964
-0.00196247
-0.00199858
-0.00199486
-0.00197069
-0.00194647
-0.00193088
-0.00192889
-0.0019402
-0.00196401
-0.00199974
-0.00204683
-0.0021048
-0.00217319
-0.00225159
-0.00233986
-0.00243844
-0.00254815
-0.00267025
-0.00280649
-0.00295938
-0.00313215
-0.003329
-0.00355551
-0.0038185
-0.00412679
-0.00448999
-0.00491826
-0.00542045
-0.00600028
-0.0066508
-0.00734483
-0.0080261
-0.00859529
-0.00889982
-0.00872122
-0.00787632
-0.00619084
-0.00523398
-0.00137137
-0.00214887
-0.0021783
-0.00216868
-0.00211571
-0.00205216
-0.00200423
-0.00197731
-0.00196831
-0.00197601
-0.00199883
-0.00203557
-0.00208532
-0.00214701
-0.00221964
-0.00230233
-0.0023945
-0.00249654
-0.00260942
-0.00273438
-0.0028732
-0.00302815
-0.00320232
-0.00339997
-0.00362659
-0.00388887
-0.0041948
-0.00455343
-0.00497324
-0.00546006
-0.00601163
-0.00661217
-0.00721978
-0.00775708
-0.00809708
-0.00806846
-0.00742572
-0.00599815
-0.00354905
-0.00157557
0.00378324
-0.00249331
-0.00244266
-0.00234288
-0.00220728
-0.00209897
-0.00203008
-0.00199175
-0.00197776
-0.0019845
-0.00200877
-0.00204822
-0.00210123
-0.00216631
-0.00224218
-0.00232787
-0.00242243
-0.00252594
-0.00264001
-0.00276637
-0.00290676
-0.00306334
-0.00323897
-0.0034379
-0.00366533
-0.00392772
-0.00423221
-0.00458697
-0.00499818
-0.00546846
-0.00598841
-0.00653099
-0.00703639
-0.00740382
-0.00745833
-0.00699177
-0.00566987
-0.00330188
0.000583904
0.00467482
0.0133617
-0.00305944
-0.00278006
-0.0025015
-0.00225632
-0.00211001
-0.00202848
-0.00198572
-0.00197128
-0.00197925
-0.00200508
-0.00204562
-0.00209843
-0.0021626
-0.00223794
-0.00232221
-0.00241485
-0.0025176
-0.00263178
-0.00275894
-0.00290079
-0.00305957
-0.0032382
-0.00344065
-0.00367117
-0.00393601
-0.00424107
-0.00459383
-0.00499684
-0.00544962
-0.00593397
-0.00641301
-0.00680132
-0.00697535
-0.00668566
-0.00568723
-0.00345008
0.000316413
0.00664531
0.0146866
0.0295162
-0.0039245
-0.00290149
-0.00241222
-0.00211545
-0.00196871
-0.00189349
-0.00185856
-0.00185275
-0.00186831
-0.00189928
-0.00194229
-0.00199543
-0.00205805
-0.00213014
-0.00221228
-0.00230564
-0.00241064
-0.00252784
-0.00265812
-0.00280332
-0.00296592
-0.00314886
-0.00335614
-0.00359107
-0.00386031
-0.00416772
-0.00452112
-0.00491747
-0.00535547
-0.00580453
-0.0062261
-0.00651111
-0.00652243
-0.00597605
-0.00448297
-0.00125697
0.00436287
0.0141109
0.0281151
0.0515496
-0.00486144
-0.0008788
-0.000221486
-0.000351332
-0.000455148
-0.000500371
-0.000552313
-0.000633888
-0.000735211
-0.000843025
-0.000951788
-0.00106255
-0.00117823
-0.00129914
-0.00142513
-0.00155711
-0.00169697
-0.00184614
-0.00200656
-0.00217989
-0.00236898
-0.00257685
-0.00280714
-0.00306506
-0.00335528
-0.0036848
-0.00405487
-0.00446809
-0.00490812
-0.00535206
-0.00573024
-0.00595474
-0.00585997
-0.00527716
-0.00364047
0.000211836
0.00792618
0.0211364
0.0414805
0.0693355
)
;

boundaryField
{
    movingWall
    {
        type            zeroGradient;
    }
    fixedWalls
    {
        type            zeroGradient;
    }
    frontAndBack
    {
        type            empty;
    }
}


// ************************************************************************* //
