/*--------------------------------*- C++ -*----------------------------------*\
  =========                 |
  \\      /  F ield         | OpenFOAM: The Open Source CFD Toolbox
   \\    /   O peration     | Website:  https://openfoam.org
    \\  /    A nd           | Version:  12
     \\/     M anipulation  |
\*---------------------------------------------------------------------------*/
FoamFile
{
    format      ascii;
    class       surfaceScalarField;
    location    "0.5";
    object      phi;
}
// * * * * * * * * * * * * * * * * * * * * * * * * * * * * * * * * * * * * * //

dimensions      [0 3 -1 0 0 0 0];

internalField   nonuniform List<scalar> 
3120
(
1.1531e-09
-1.15456e-09
-2.4809e-09
3.63395e-09
-1.03694e-08
7.8884e-09
-2.08431e-08
1.04736e-08
-3.25892e-08
1.17461e-08
-4.48083e-08
1.2219e-08
-5.70361e-08
1.22278e-08
-6.90039e-08
1.19677e-08
-8.05602e-08
1.15563e-08
-9.16239e-08
1.10636e-08
-1.02152e-07
1.05285e-08
-1.12121e-07
9.96871e-09
-1.21509e-07
9.3883e-09
-1.30292e-07
8.78299e-09
-1.38437e-07
8.14414e-09
-1.45898e-07
7.46131e-09
-1.52622e-07
6.72379e-09
-1.58543e-07
5.92133e-09
-1.63588e-07
5.04439e-09
-1.67671e-07
4.08383e-09
-1.70702e-07
3.03045e-09
-1.72579e-07
1.87755e-09
-1.73233e-07
6.53837e-10
-1.7253e-07
-7.03397e-10
-1.70376e-07
-2.1538e-09
-1.66665e-07
-3.71086e-09
-1.61301e-07
-5.36416e-09
-1.542e-07
-7.10105e-09
-1.45299e-07
-8.90073e-09
-1.3457e-07
-1.073e-08
-1.22029e-07
-1.25401e-08
-1.07768e-07
-1.42619e-08
-9.19683e-08
-1.57993e-08
-7.49358e-08
-1.70325e-08
-5.71487e-08
-1.77871e-08
-3.93576e-08
-1.77911e-08
-2.27643e-08
-1.65933e-08
-9.2696e-09
-1.34947e-08
-1.3449e-09
-7.92472e-09
-1.34491e-09
-3.59991e-09
2.44532e-09
-1.25666e-08
1.26006e-08
-2.47276e-08
2.00493e-08
-3.87452e-08
2.44912e-08
-5.38043e-08
2.68052e-08
-6.93473e-08
2.7762e-08
-8.49832e-08
2.78635e-08
-1.00434e-07
2.7419e-08
-1.15503e-07
2.66249e-08
-1.30046e-07
2.56066e-08
-1.43958e-07
2.44403e-08
-1.57156e-07
2.3167e-08
-1.69572e-07
2.18037e-08
-1.81139e-07
2.03504e-08
-1.91792e-07
1.87972e-08
-2.0146e-07
1.71288e-08
-2.10063e-07
1.53274e-08
-2.17517e-07
1.33751e-08
-2.23728e-07
1.12547e-08
-2.28594e-07
8.95045e-09
-2.32012e-07
6.44858e-09
-2.33877e-07
3.7426e-09
-2.34054e-07
8.30678e-10
-2.32457e-07
-2.30042e-09
-2.28966e-07
-5.64551e-09
-2.23488e-07
-9.18834e-09
-2.15946e-07
-1.29062e-08
-2.06285e-07
-1.6762e-08
-1.94486e-07
-2.06994e-08
-1.80577e-07
-2.46396e-08
-1.6464e-07
-2.84767e-08
-1.4683e-07
-3.2072e-08
-1.27382e-07
-3.52471e-08
-1.06646e-07
-3.7769e-08
-8.5101e-08
-3.93321e-08
-6.33925e-08
-3.94996e-08
-4.23915e-08
-3.75944e-08
-2.32983e-08
-3.25879e-08
-7.9411e-09
-2.32819e-08
-9.28602e-09
-7.89591e-09
1.03413e-08
-2.00315e-08
2.47362e-08
-3.3663e-08
3.36808e-08
-4.82974e-08
3.91256e-08
-6.36457e-08
4.21534e-08
-7.94163e-08
4.35326e-08
-9.53406e-08
4.37877e-08
-1.11187e-07
4.32653e-08
-1.26761e-07
4.21986e-08
-1.41899e-07
4.07454e-08
-1.56468e-07
3.90089e-08
-1.70352e-07
3.70513e-08
-1.83453e-07
3.49042e-08
-1.95679e-07
3.25767e-08
-2.06945e-07
3.00627e-08
-2.17163e-07
2.73467e-08
-2.26243e-07
2.44081e-08
-2.34093e-07
2.12242e-08
-2.4061e-07
1.77725e-08
-2.45693e-07
1.40325e-08
-2.49231e-07
9.98695e-09
-2.51113e-07
5.62489e-09
-2.51223e-07
9.40788e-10
-2.49455e-07
-4.06921e-09
-2.45708e-07
-9.39232e-09
-2.39896e-07
-1.50001e-08
-2.31955e-07
-2.08477e-08
-2.2185e-07
-2.68671e-08
-2.09587e-07
-3.29621e-08
-1.95221e-07
-3.90051e-08
-1.78866e-07
-4.48322e-08
-1.60699e-07
-5.02386e-08
-1.40974e-07
-5.49728e-08
-1.20018e-07
-5.87243e-08
-9.82453e-08
-6.11053e-08
-7.61417e-08
-6.16032e-08
-5.42464e-08
-5.94897e-08
-3.31127e-08
-5.37216e-08
-1.36081e-08
-4.27866e-08
-2.28941e-08
-1.05914e-08
2.09326e-08
-2.46323e-08
3.87771e-08
-3.92986e-08
4.8347e-08
-5.43704e-08
5.41974e-08
-6.98202e-08
5.76032e-08
-8.55475e-08
5.92599e-08
-1.01401e-07
5.96414e-08
-1.17214e-07
5.90776e-08
-1.32819e-07
5.7804e-08
-1.48062e-07
5.59887e-08
-1.62802e-07
5.37489e-08
-1.76912e-07
5.11609e-08
-1.90276e-07
4.82687e-08
-2.0279e-07
4.50907e-08
-2.14354e-07
4.16266e-08
-2.24871e-07
3.78632e-08
-2.34242e-07
3.37793e-08
-2.42367e-07
2.93497e-08
-2.49143e-07
2.45481e-08
-2.5446e-07
1.93499e-08
-2.58208e-07
1.37345e-08
-2.60271e-07
7.68772e-09
-2.60535e-07
1.20519e-09
-2.58891e-07
-5.71306e-09
-2.55242e-07
-1.30413e-08
-2.49505e-07
-2.07378e-08
-2.41619e-07
-2.87337e-08
-2.31557e-07
-3.69286e-08
-2.19333e-07
-4.51864e-08
-2.05006e-07
-5.33319e-08
-1.88692e-07
-6.11469e-08
-1.70561e-07
-6.83687e-08
-1.50848e-07
-7.46867e-08
-1.29836e-07
-7.97362e-08
-1.07856e-07
-8.3085e-08
-8.5258e-08
-8.42012e-08
-6.23651e-08
-8.23826e-08
-3.94509e-08
-7.66358e-08
-1.71446e-08
-6.50929e-08
-4.00387e-08
-1.20402e-08
3.29728e-08
-2.72857e-08
5.40226e-08
-4.28133e-08
6.38746e-08
-5.84038e-08
6.97879e-08
-7.41074e-08
7.33068e-08
-8.99232e-08
7.50757e-08
-1.05785e-07
7.55031e-08
-1.21585e-07
7.48782e-08
-1.37198e-07
7.34163e-08
-1.52488e-07
7.12789e-08
-1.67324e-07
6.85845e-08
-1.81578e-07
6.54153e-08
-1.95132e-07
6.18228e-08
-2.07874e-07
5.78326e-08
-2.19697e-07
5.34495e-08
-2.30497e-07
4.86632e-08
-2.40171e-07
4.34529e-08
-2.48612e-07
3.77915e-08
-2.55714e-07
3.16496e-08
-2.61363e-07
2.49989e-08
-2.65444e-07
1.78153e-08
-2.67838e-07
1.00822e-08
-2.68428e-07
1.79431e-09
-2.671e-07
-7.0404e-09
-2.63752e-07
-1.63892e-08
-2.58296e-07
-2.61943e-08
-2.50666e-07
-3.63638e-08
-2.40828e-07
-4.67665e-08
-2.28785e-07
-5.72288e-08
-2.14586e-07
-6.7531e-08
-1.98327e-07
-7.74063e-08
-1.80154e-07
-8.65414e-08
-1.60264e-07
-9.45774e-08
-1.38891e-07
-1.01109e-07
-1.16299e-07
-1.05677e-07
-9.27522e-08
-1.07748e-07
-6.84879e-08
-1.06647e-07
-4.37477e-08
-1.01376e-07
-1.92804e-08
-8.95602e-08
-5.93191e-08
-1.27563e-08
4.5729e-08
-2.87781e-08
7.00445e-08
-4.50158e-08
8.01123e-08
-6.11604e-08
8.59325e-08
-7.72468e-08
8.93932e-08
-9.33072e-08
9.1136e-08
-1.09323e-07
9.15187e-08
-1.25232e-07
9.07869e-08
-1.40942e-07
8.91262e-08
-1.56344e-07
8.66811e-08
-1.71322e-07
8.35621e-08
-1.85756e-07
7.98503e-08
-1.99533e-07
7.55991e-08
-2.12538e-07
7.08379e-08
-2.24664e-07
6.55751e-08
-2.35803e-07
5.98022e-08
-2.45848e-07
5.34982e-08
-2.54691e-07
4.66345e-08
-2.6222e-07
3.91781e-08
-2.68317e-07
3.10964e-08
-2.72863e-07
2.2361e-08
-2.75733e-07
1.2952e-08
-2.76802e-07
2.86318e-09
-2.75948e-07
-7.89399e-09
-2.73057e-07
-1.928e-08
-2.68028e-07
-3.12235e-08
-2.6078e-07
-4.36122e-08
-2.51258e-07
-5.62881e-08
-2.39444e-07
-6.90433e-08
-2.25357e-07
-8.1618e-08
-2.09062e-07
-9.37011e-08
-1.9067e-07
-1.04934e-07
-1.70335e-07
-1.14912e-07
-1.48252e-07
-1.23192e-07
-1.24641e-07
-1.29288e-07
-9.97397e-08
-1.3265e-07
-7.37946e-08
-1.32592e-07
-4.7146e-08
-1.28025e-07
-2.07711e-08
-1.15935e-07
-8.00903e-08
-1.30786e-08
5.88076e-08
-2.96171e-08
8.6583e-08
-4.6443e-08
9.69382e-08
-6.31393e-08
1.02629e-07
-7.96876e-08
1.05942e-07
-9.61144e-08
1.07563e-07
-1.1242e-07
1.07824e-07
-1.28568e-07
1.06935e-07
-1.44494e-07
1.05053e-07
-1.60112e-07
1.02299e-07
-1.75322e-07
9.87722e-08
-1.90018e-07
9.45464e-08
-2.04092e-07
8.96731e-08
-2.17436e-07
8.41818e-08
-2.29943e-07
7.80818e-08
-2.41506e-07
7.1365e-08
-2.52017e-07
6.40093e-08
-2.61366e-07
5.59832e-08
-2.69437e-07
4.72492e-08
-2.7611e-07
3.77693e-08
-2.81258e-07
2.75092e-08
-2.8475e-07
1.64436e-08
-2.86449e-07
4.56279e-09
-2.86222e-07
-8.12164e-09
-2.83935e-07
-2.15668e-08
-2.79466e-07
-3.56921e-08
-2.72709e-07
-5.03694e-08
-2.63578e-07
-6.54185e-08
-2.5202e-07
-8.06022e-08
-2.38013e-07
-9.56248e-08
-2.2158e-07
-1.10134e-07
-2.02789e-07
-1.23724e-07
-1.81755e-07
-1.35946e-07
-1.58639e-07
-1.46308e-07
-1.33648e-07
-1.54279e-07
-1.07032e-07
-1.59265e-07
-7.91109e-08
-1.60513e-07
-5.03804e-08
-1.56755e-07
-2.20785e-08
-1.44237e-07
-1.02169e-07
-1.32033e-08
7.20109e-08
-3.01093e-08
1.03489e-07
-4.74402e-08
1.14269e-07
-6.46756e-08
1.19864e-07
-8.17341e-08
1.23e-07
-9.86168e-08
1.24445e-07
-1.15323e-07
1.2453e-07
-1.3183e-07
1.23442e-07
-1.48091e-07
1.21313e-07
-1.64036e-07
1.18244e-07
-1.79583e-07
1.14319e-07
-1.94638e-07
1.09602e-07
-2.09104e-07
1.04139e-07
-2.22879e-07
9.79569e-08
-2.35861e-07
9.10643e-08
-2.47947e-07
8.34512e-08
-2.59031e-07
7.50928e-08
-2.69001e-07
6.59529e-08
-2.7774e-07
5.59883e-08
-2.85124e-07
4.51534e-08
-2.9102e-07
3.34054e-08
-2.95287e-07
2.07109e-08
-2.97777e-07
7.05271e-09
-2.98337e-07
-7.56226e-09
-2.96811e-07
-2.30929e-08
-2.93048e-07
-3.9455e-08
-2.86905e-07
-5.65116e-08
-2.78258e-07
-7.40664e-08
-2.67001e-07
-9.18584e-08
-2.53066e-07
-1.0956e-07
-2.3642e-07
-1.2678e-07
-2.17081e-07
-1.43063e-07
-1.95123e-07
-1.57905e-07
-1.70683e-07
-1.70748e-07
-1.43971e-07
-1.80991e-07
-1.15285e-07
-1.87951e-07
-8.5048e-08
-1.90751e-07
-5.3941e-08
-1.87862e-07
-2.34822e-08
-1.74696e-07
-1.25651e-07
-1.32451e-08
8.52559e-08
-3.04449e-08
1.20689e-07
-4.82344e-08
1.32059e-07
-6.60012e-08
1.37631e-07
-8.3603e-08
1.40602e-07
-1.01008e-07
1.41851e-07
-1.18206e-07
1.41728e-07
-1.35174e-07
1.40411e-07
-1.51876e-07
1.38014e-07
-1.68255e-07
1.34624e-07
-1.84243e-07
1.30306e-07
-1.99758e-07
1.25117e-07
-2.14714e-07
1.19095e-07
-2.2902e-07
1.12262e-07
-2.4258e-07
1.04624e-07
-2.55296e-07
9.6167e-08
-2.67065e-07
8.68617e-08
-2.77778e-07
7.66658e-08
-2.87317e-07
6.5528e-08
-2.95556e-07
5.33926e-08
-3.02356e-07
4.02053e-08
-3.07566e-07
2.59203e-08
-3.11021e-07
1.05081e-08
-3.12548e-07
-6.03516e-09
-3.11964e-07
-2.36772e-08
-3.09081e-07
-4.23381e-08
-3.03712e-07
-6.18804e-08
-2.95678e-07
-8.21001e-08
-2.84817e-07
-1.0272e-07
-2.70992e-07
-1.23386e-07
-2.54105e-07
-1.43666e-07
-2.34115e-07
-1.63054e-07
-2.11047e-07
-1.80973e-07
-1.85015e-07
-1.9678e-07
-1.56245e-07
-2.09761e-07
-1.25096e-07
-2.191e-07
-9.21208e-08
-2.23726e-07
-5.82072e-08
-2.21776e-07
-2.51775e-08
-2.07725e-07
-1.50829e-07
-1.32702e-08
9.85261e-08
-3.0746e-08
1.38165e-07
-4.89778e-08
1.5029e-07
-6.7278e-08
1.55931e-07
-8.54506e-08
1.58774e-07
-1.03431e-07
1.59831e-07
-1.21191e-07
1.59488e-07
-1.38707e-07
1.57926e-07
-1.55943e-07
1.55251e-07
-1.72854e-07
1.51534e-07
-1.8938e-07
1.46833e-07
-2.05453e-07
1.4119e-07
-2.20998e-07
1.3464e-07
-2.35933e-07
1.27197e-07
-2.50172e-07
1.18864e-07
-2.63625e-07
1.0962e-07
-2.76195e-07
9.94316e-08
-2.87777e-07
8.82476e-08
-2.98255e-07
7.60062e-08
-3.07501e-07
6.26387e-08
-3.15371e-07
4.80755e-08
-3.21705e-07
3.22536e-08
-3.26322e-07
1.51251e-08
-3.29025e-07
-3.33209e-09
-3.29598e-07
-2.31037e-08
-3.27813e-07
-4.41238e-08
-3.23427e-07
-6.62656e-08
-3.16199e-07
-8.93283e-08
-3.05891e-07
-1.13028e-07
-2.92284e-07
-1.36992e-07
-2.75199e-07
-1.60751e-07
-2.54514e-07
-1.83739e-07
-2.30194e-07
-2.05293e-07
-2.02322e-07
-2.24651e-07
-1.71136e-07
-2.40948e-07
-1.3707e-07
-2.53166e-07
-1.00823e-07
-2.59972e-07
-6.3515e-08
-2.59084e-07
-2.73218e-08
-2.43919e-07
-1.7815e-07
-1.3321e-08
1.11847e-07
-3.10897e-08
1.55933e-07
-4.97715e-08
1.68972e-07
-6.86181e-08
1.74778e-07
-8.73888e-08
1.77545e-07
-1.05989e-07
1.78431e-07
-1.24372e-07
1.77871e-07
-1.42506e-07
1.7606e-07
-1.60356e-07
1.73102e-07
-1.77883e-07
1.6906e-07
-1.95035e-07
1.63985e-07
-2.11755e-07
1.57911e-07
-2.27979e-07
1.50864e-07
-2.43637e-07
1.42855e-07
-2.58654e-07
1.33881e-07
-2.72949e-07
1.23915e-07
-2.86434e-07
1.12917e-07
-2.99011e-07
1.00824e-07
-3.10569e-07
8.75637e-08
-3.2098e-07
7.30498e-08
-3.30098e-07
5.71937e-08
-3.37754e-07
3.99097e-08
-3.43753e-07
2.11242e-08
-3.47874e-07
7.889e-10
-3.49866e-07
-2.11124e-08
-3.49451e-07
-4.45388e-08
-3.46327e-07
-6.93889e-08
-3.40175e-07
-9.54802e-08
-3.30667e-07
-1.22537e-07
-3.17482e-07
-1.50177e-07
-3.00332e-07
-1.77901e-07
-2.7899e-07
-2.05081e-07
-2.53334e-07
-2.30949e-07
-2.23392e-07
-2.54593e-07
-1.89404e-07
-2.74936e-07
-1.5188e-07
-2.9069e-07
-1.11685e-07
-3.00167e-07
-7.02154e-08
-3.00554e-07
-3.00743e-08
-2.8406e-07
-2.08225e-07
-1.34221e-08
1.25269e-07
-3.15226e-08
1.74034e-07
-5.06801e-08
1.8813e-07
-7.00967e-08
1.94194e-07
-8.94951e-08
1.96943e-07
-1.08754e-07
1.9769e-07
-1.2781e-07
1.96927e-07
-1.46622e-07
1.94872e-07
-1.65155e-07
1.91634e-07
-1.83369e-07
1.87275e-07
-2.01222e-07
1.81838e-07
-2.18668e-07
1.75356e-07
-2.35652e-07
1.67848e-07
-2.52117e-07
1.59321e-07
-2.68002e-07
1.49765e-07
-2.83237e-07
1.3915e-07
-2.97746e-07
1.27426e-07
-3.11441e-07
1.14519e-07
-3.24218e-07
1.00341e-07
-3.35956e-07
8.47881e-08
-3.4651e-07
6.77472e-08
-3.55705e-07
4.91044e-08
-3.63333e-07
2.87528e-08
-3.69151e-07
6.60641e-09
-3.72872e-07
-1.73911e-08
-3.74168e-07
-4.32423e-08
-3.72669e-07
-7.08879e-08
-3.67966e-07
-1.00184e-07
-3.5962e-07
-1.30883e-07
-3.47183e-07
-1.62614e-07
-3.30225e-07
-1.94859e-07
-3.08375e-07
-2.26931e-07
-2.81379e-07
-2.57945e-07
-2.49173e-07
-2.86799e-07
-2.11966e-07
-3.12143e-07
-1.70336e-07
-3.3232e-07
-1.25344e-07
-3.4516e-07
-7.87219e-08
-3.47175e-07
-3.3604e-08
-3.29178e-07
-2.41829e-07
-1.35855e-08
1.38855e-07
-3.20708e-08
1.92519e-07
-5.17431e-08
2.07802e-07
-7.1762e-08
2.14213e-07
-9.18211e-08
2.17003e-07
-1.11776e-07
2.17645e-07
-1.31549e-07
2.167e-07
-1.5109e-07
2.14413e-07
-1.70358e-07
2.10902e-07
-1.89319e-07
2.06236e-07
-2.07936e-07
2.00455e-07
-2.26171e-07
1.93591e-07
-2.43983e-07
1.8566e-07
-2.61328e-07
1.76666e-07
-2.78158e-07
1.66596e-07
-2.9442e-07
1.55413e-07
-3.10052e-07
1.43058e-07
-3.2498e-07
1.29447e-07
-3.39114e-07
1.14475e-07
-3.52341e-07
9.80157e-08
-3.64524e-07
7.99295e-08
-3.75487e-07
6.00681e-08
-3.85018e-07
3.82835e-08
-3.92852e-07
1.44405e-08
-3.98672e-07
-1.15706e-08
-4.02099e-07
-3.98157e-08
-4.02687e-07
-7.02996e-08
-3.99928e-07
-1.02943e-07
-3.93253e-07
-1.37558e-07
-3.82054e-07
-1.73812e-07
-3.65715e-07
-2.11198e-07
-3.43663e-07
-2.48983e-07
-3.15448e-07
-2.8616e-07
-2.80845e-07
-3.21403e-07
-2.3998e-07
-3.53008e-07
-1.93475e-07
-3.78825e-07
-1.4261e-07
-3.96025e-07
-8.95421e-08
-4.00243e-07
-3.81093e-08
-3.8061e-07
-2.79938e-07
-1.38154e-08
1.5267e-07
-3.27467e-08
2.1145e-07
-5.29818e-08
2.28037e-07
-7.36428e-08
2.34874e-07
-9.43986e-08
2.37758e-07
-1.15087e-07
2.38333e-07
-1.35615e-07
2.37228e-07
-1.55924e-07
2.34722e-07
-1.75973e-07
2.30951e-07
-1.95726e-07
2.25989e-07
-2.15155e-07
2.19883e-07
-2.34229e-07
2.12665e-07
-2.5292e-07
2.04351e-07
-2.71201e-07
1.94947e-07
-2.8904e-07
1.84434e-07
-3.06401e-07
1.72773e-07
-3.2324e-07
1.59897e-07
-3.39504e-07
1.45711e-07
-3.5512e-07
1.30091e-07
-3.69994e-07
1.12889e-07
-3.83999e-07
9.39348e-08
-3.96972e-07
7.30411e-08
-4.087e-07
5.00113e-08
-4.1891e-07
2.46502e-08
-4.27259e-07
-3.22123e-09
-4.3332e-07
-3.37543e-08
-4.36576e-07
-6.70441e-08
-4.36407e-07
-1.03112e-07
-4.32097e-07
-1.41868e-07
-4.22839e-07
-1.8307e-07
-4.07777e-07
-2.26261e-07
-3.86057e-07
-2.70702e-07
-3.56937e-07
-3.1528e-07
-3.19924e-07
-3.58415e-07
-2.74967e-07
-3.97965e-07
-2.22675e-07
-4.31117e-07
-1.64566e-07
-4.54134e-07
-1.03352e-07
-4.61457e-07
-4.38465e-08
-4.40116e-07
-3.23785e-07
-1.41112e-08
1.66781e-07
-3.35541e-08
2.30893e-07
-5.44065e-08
2.48889e-07
-7.57548e-08
2.56222e-07
-9.72467e-08
2.5925e-07
-1.18703e-07
2.5979e-07
-1.40021e-07
2.58546e-07
-1.61133e-07
2.55834e-07
-1.81995e-07
2.51813e-07
-2.02574e-07
2.46568e-07
-2.22846e-07
2.40155e-07
-2.42793e-07
2.32611e-07
-2.62399e-07
2.23958e-07
-2.81653e-07
2.14201e-07
-3.00543e-07
2.03324e-07
-3.19054e-07
1.91285e-07
-3.37167e-07
1.7801e-07
-3.54851e-07
1.63395e-07
-3.72059e-07
1.47299e-07
-3.88721e-07
1.29552e-07
-4.04737e-07
1.0995e-07
-4.19962e-07
8.82659e-08
-4.34197e-07
6.42469e-08
-4.47175e-07
3.76276e-08
-4.58542e-07
8.14599e-09
-4.67834e-07
-2.44626e-08
-4.74467e-07
-6.0411e-08
-4.77712e-07
-9.98665e-08
-4.76686e-07
-1.42895e-07
-4.7035e-07
-1.89406e-07
-4.57536e-07
-2.39075e-07
-4.37012e-07
-2.91225e-07
-4.07604e-07
-3.44689e-07
-3.68388e-07
-3.97632e-07
-3.18968e-07
-4.47385e-07
-2.59826e-07
-4.90259e-07
-1.92715e-07
-5.21245e-07
-1.21082e-07
-5.3309e-07
-5.11487e-08
-5.10049e-07
-3.74933e-07
-1.44705e-08
1.81252e-07
-3.44928e-08
2.50916e-07
-5.60215e-08
2.70418e-07
-7.8107e-08
2.78308e-07
-1.00377e-07
2.8152e-07
-1.22638e-07
2.82051e-07
-1.44776e-07
2.80684e-07
-1.66718e-07
2.77776e-07
-1.88416e-07
2.73511e-07
-2.09841e-07
2.67992e-07
-2.30973e-07
2.61288e-07
-2.51807e-07
2.53445e-07
-2.72343e-07
2.44493e-07
-2.92586e-07
2.34444e-07
-3.12547e-07
2.23285e-07
-3.32236e-07
2.10974e-07
-3.51662e-07
1.97436e-07
-3.70824e-07
1.82557e-07
-3.89709e-07
1.66184e-07
-4.08281e-07
1.48124e-07
-4.26476e-07
1.28145e-07
-4.44185e-07
1.05975e-07
-4.61242e-07
8.13038e-08
-4.77403e-07
5.37892e-08
-4.92322e-07
2.3065e-08
-5.0553e-07
-1.1255e-08
-5.16389e-07
-4.95519e-08
-5.24072e-07
-9.2184e-08
-5.27522e-07
-1.39444e-07
-5.25437e-07
-1.91491e-07
-5.16268e-07
-2.48243e-07
-4.98276e-07
-3.09217e-07
-4.69664e-07
-3.73301e-07
-4.28827e-07
-4.38469e-07
-3.74754e-07
-5.01458e-07
-3.07568e-07
-5.57446e-07
-2.29188e-07
-5.99624e-07
-1.44037e-07
-6.18241e-07
-6.04429e-08
-5.93643e-07
-4.35376e-07
-1.4891e-08
1.96143e-07
-3.55619e-08
2.71587e-07
-5.78299e-08
2.92686e-07
-8.07065e-08
3.01185e-07
-1.038e-07
3.04613e-07
-1.26902e-07
3.05153e-07
-1.49888e-07
3.0367e-07
-1.72679e-07
3.00568e-07
-1.95227e-07
2.96058e-07
-2.17503e-07
2.90268e-07
-2.39497e-07
2.83282e-07
-2.61214e-07
2.75162e-07
-2.82672e-07
2.6595e-07
-3.03895e-07
2.55668e-07
-3.24921e-07
2.4431e-07
-3.45786e-07
2.3184e-07
-3.66533e-07
2.18183e-07
-3.87198e-07
2.03221e-07
-4.07809e-07
1.86794e-07
-4.28377e-07
1.68692e-07
-4.48887e-07
1.48656e-07
-4.69285e-07
1.26373e-07
-4.8946e-07
1.01479e-07
-5.09221e-07
7.355e-08
-5.28264e-07
4.21082e-08
-5.46144e-07
6.62446e-09
-5.62209e-07
-3.34866e-08
-5.75564e-07
-7.88292e-08
-5.84996e-07
-1.30012e-07
-5.88921e-07
-1.87566e-07
-5.85346e-07
-2.51818e-07
-5.7188e-07
-3.22684e-07
-5.45852e-07
-3.99329e-07
-5.04613e-07
-4.79708e-07
-4.46086e-07
-5.59985e-07
-3.69601e-07
-6.33931e-07
-2.77014e-07
-6.92211e-07
-1.74039e-07
-7.21216e-07
-7.22428e-08
-6.95439e-07
-5.07619e-07
-1.53721e-08
2.11515e-07
-3.67633e-08
2.92978e-07
-5.98377e-08
3.1576e-07
-8.35641e-08
3.24911e-07
-1.07528e-07
3.28578e-07
-1.31508e-07
3.29133e-07
-1.55368e-07
3.2753e-07
-1.79022e-07
3.24222e-07
-2.02422e-07
3.19458e-07
-2.25542e-07
3.13389e-07
-2.48382e-07
3.06122e-07
-2.70958e-07
2.97738e-07
-2.93306e-07
2.88298e-07
-3.15475e-07
2.77837e-07
-3.37527e-07
2.66362e-07
-3.59533e-07
2.53846e-07
-3.8157e-07
2.4022e-07
-4.0372e-07
2.25371e-07
-4.2606e-07
2.09134e-07
-4.48659e-07
1.91292e-07
-4.7157e-07
1.71566e-07
-4.94813e-07
1.49616e-07
-5.18359e-07
1.25025e-07
-5.42107e-07
9.72973e-08
-5.6584e-07
6.58419e-08
-5.89185e-07
2.99695e-08
-6.11544e-07
-1.11274e-08
-6.32007e-07
-5.83662e-08
-6.49256e-07
-1.12763e-07
-6.61448e-07
-1.75374e-07
-6.66105e-07
-2.47162e-07
-6.60044e-07
-3.28744e-07
-6.39422e-07
-4.19952e-07
-6.00022e-07
-5.19107e-07
-5.37988e-07
-6.22019e-07
-4.51054e-07
-7.20865e-07
-3.40455e-07
-8.02811e-07
-2.13574e-07
-8.48097e-07
-8.70817e-08
-8.21931e-07
-5.94701e-07
-1.59161e-08
2.27431e-07
-3.81039e-08
3.15166e-07
-6.20579e-08
3.39715e-07
-8.66982e-08
3.49551e-07
-1.11585e-07
3.53465e-07
-1.3648e-07
3.54028e-07
-1.61236e-07
3.52286e-07
-1.85762e-07
3.48748e-07
-2.10006e-07
3.43702e-07
-2.33949e-07
3.37332e-07
-2.57599e-07
3.29772e-07
-2.80988e-07
3.21127e-07
-3.0417e-07
3.1148e-07
-3.27219e-07
3.00885e-07
-3.50225e-07
2.89368e-07
-3.73295e-07
2.76916e-07
-3.96548e-07
2.63473e-07
-4.20113e-07
2.48936e-07
-4.44127e-07
2.33148e-07
-4.68728e-07
2.15893e-07
-4.94051e-07
1.96889e-07
-5.20214e-07
1.7578e-07
-5.47305e-07
1.52116e-07
-5.75351e-07
1.25343e-07
-6.04283e-07
9.47732e-08
-6.33869e-07
5.95559e-08
-6.63651e-07
1.86545e-08
-6.92803e-07
-2.92138e-08
-7.20005e-07
-8.55613e-08
-7.43238e-07
-1.52141e-07
-7.59565e-07
-2.30835e-07
-7.64918e-07
-3.23391e-07
-7.53957e-07
-4.30913e-07
-7.20213e-07
-5.52852e-07
-6.56937e-07
-6.85295e-07
-5.58846e-07
-8.18956e-07
-4.25354e-07
-9.36302e-07
-2.65854e-07
-1.0076e-06
-1.05294e-07
-9.8249e-07
-6.99995e-07
-1.65291e-08
2.4396e-07
-3.9598e-08
3.38234e-07
-6.45133e-08
3.6463e-07
-9.01391e-08
3.75177e-07
-1.16006e-07
3.79332e-07
-1.41856e-07
3.79877e-07
-1.67528e-07
3.77958e-07
-1.92925e-07
3.74145e-07
-2.17995e-07
3.68772e-07
-2.42724e-07
3.62061e-07
-2.6713e-07
3.54178e-07
-2.91262e-07
3.45259e-07
-3.15194e-07
3.35411e-07
-3.39024e-07
3.24716e-07
-3.62876e-07
3.1322e-07
-3.86891e-07
3.00932e-07
-4.11233e-07
2.87815e-07
-4.36083e-07
2.73786e-07
-4.61643e-07
2.58707e-07
-4.88131e-07
2.4238e-07
-5.15779e-07
2.24537e-07
-5.44827e-07
2.04828e-07
-5.75509e-07
1.82798e-07
-6.0803e-07
1.57865e-07
-6.4253e-07
1.29273e-07
-6.79018e-07
9.60443e-08
-7.17274e-07
5.69099e-08
-7.56724e-07
1.02366e-08
-7.962e-07
-4.60848e-08
-8.33694e-07
-1.14648e-07
-8.65956e-07
-1.98573e-07
-8.88054e-07
-3.01292e-07
-8.92903e-07
-4.26064e-07
-8.70957e-07
-5.74798e-07
-8.10928e-07
-7.45324e-07
-7.02047e-07
-9.27837e-07
-5.39479e-07
-1.09887e-06
-3.3465e-07
-1.21243e-06
-1.26605e-07
-1.19053e-06
-8.266e-07
-1.72225e-08
2.61183e-07
-4.12698e-08
3.62282e-07
-6.72406e-08
3.90601e-07
-9.39338e-08
4.0187e-07
-1.20844e-07
4.06243e-07
-1.47689e-07
4.06722e-07
-1.74295e-07
4.04563e-07
-2.00556e-07
4.00407e-07
-2.26421e-07
3.94637e-07
-2.51882e-07
3.87522e-07
-2.76969e-07
3.79265e-07
-3.01748e-07
3.70038e-07
-3.26315e-07
3.59979e-07
-3.50796e-07
3.49197e-07
-3.75344e-07
3.37768e-07
-4.00137e-07
3.25725e-07
-4.25384e-07
3.13062e-07
-4.51321e-07
2.99723e-07
-4.78216e-07
2.85602e-07
-5.06373e-07
2.70538e-07
-5.36135e-07
2.54299e-07
-5.67879e-07
2.36572e-07
-6.02018e-07
2.16937e-07
-6.38979e-07
1.94826e-07
-6.7918e-07
1.69474e-07
-7.22966e-07
1.3983e-07
-7.70512e-07
1.04456e-07
-8.21655e-07
6.13794e-08
-8.7567e-07
7.92993e-09
-9.30847e-07
-5.94706e-08
-9.8397e-07
-1.4545e-07
-1.02952e-06
-2.5574e-07
-1.05866e-06
-3.96926e-07
-1.05801e-06
-5.75448e-07
-1.00945e-06
-7.9388e-07
-8.92579e-07
-1.04471e-06
-6.93283e-07
-1.29817e-06
-4.24522e-07
-1.48119e-06
-1.51144e-07
-1.46391e-06
-9.77744e-07
-1.80139e-08
2.79196e-07
-4.31565e-08
3.87424e-07
-7.0294e-08
4.17738e-07
-9.81496e-08
4.29726e-07
-1.26175e-07
4.34268e-07
-1.54059e-07
4.34606e-07
-1.8161e-07
4.32114e-07
-2.08718e-07
4.27514e-07
-2.3533e-07
4.2125e-07
-2.61448e-07
4.1364e-07
-2.87117e-07
4.04934e-07
-3.1242e-07
3.95341e-07
-3.37478e-07
3.85036e-07
-3.62441e-07
3.74161e-07
-3.87493e-07
3.6282e-07
-4.12849e-07
3.51081e-07
-4.38758e-07
3.38971e-07
-4.65508e-07
3.26473e-07
-4.93435e-07
3.13529e-07
-5.22928e-07
3.00031e-07
-5.54442e-07
2.85813e-07
-5.88506e-07
2.70636e-07
-6.25728e-07
2.54159e-07
-6.66797e-07
2.35895e-07
-7.12466e-07
2.15142e-07
-7.6351e-07
1.90875e-07
-8.20646e-07
1.61592e-07
-8.84367e-07
1.251e-07
-9.5467e-07
7.82331e-08
-1.03066e-06
1.65245e-08
-1.10975e-06
-6.63663e-08
-1.18655e-06
-1.78934e-07
-1.25106e-06
-3.32416e-07
-1.28583e-06
-5.40684e-07
-1.26315e-06
-8.16559e-07
-1.1462e-06
-1.16166e-06
-9.02247e-07
-1.54212e-06
-5.48234e-07
-1.8352e-06
-1.90293e-07
-1.82185e-06
-1.16804e-06
-1.89298e-08
2.98126e-07
-4.5311e-08
4.13806e-07
-7.37495e-08
4.46177e-07
-1.02879e-07
4.58855e-07
-1.32099e-07
4.63488e-07
-1.61065e-07
4.63572e-07
-1.89567e-07
4.60617e-07
-2.17488e-07
4.55435e-07
-2.44782e-07
4.48543e-07
-2.71459e-07
4.40317e-07
-2.97582e-07
4.31057e-07
-3.23257e-07
4.21016e-07
-3.48625e-07
4.10405e-07
-3.73866e-07
3.99401e-07
-3.99189e-07
3.88143e-07
-4.2484e-07
3.76733e-07
-4.51107e-07
3.65237e-07
-4.78321e-07
3.53688e-07
-5.06878e-07
3.42086e-07
-5.37246e-07
3.30399e-07
-5.69986e-07
3.18553e-07
-6.05774e-07
3.06423e-07
-6.45417e-07
2.93802e-07
-6.89879e-07
2.80357e-07
-7.40282e-07
2.65546e-07
-7.97901e-07
2.48494e-07
-8.64114e-07
2.27805e-07
-9.40285e-07
2.01271e-07
-1.02752e-06
1.65472e-07
-1.12627e-06
1.15273e-07
-1.23557e-06
4.29358e-08
-1.35148e-06
-6.30255e-08
-1.46438e-06
-2.19516e-07
-1.55358e-06
-4.51484e-07
-1.57918e-06
-7.90961e-07
-1.47784e-06
-1.26301e-06
-1.1909e-06
-1.82905e-06
-7.53019e-07
-2.27308e-06
-2.93075e-07
-2.2818e-06
-1.46111e-06
-2.00069e-08
3.18133e-07
-4.78071e-08
4.41606e-07
-7.77103e-08
4.7608e-07
-1.08244e-07
4.89389e-07
-1.38746e-07
4.93989e-07
-1.68833e-07
4.93659e-07
-1.98277e-07
4.90062e-07
-2.26959e-07
4.84116e-07
-2.54838e-07
4.76423e-07
-2.81945e-07
4.67424e-07
-3.08363e-07
4.57475e-07
-3.34221e-07
4.46874e-07
-3.59686e-07
4.3587e-07
-3.8496e-07
4.24675e-07
-4.10279e-07
4.13461e-07
-4.35911e-07
4.02366e-07
-4.62172e-07
3.91498e-07
-4.89429e-07
3.80945e-07
-5.1812e-07
3.70777e-07
-5.48775e-07
3.61054e-07
-5.82043e-07
3.51821e-07
-6.18722e-07
3.43103e-07
-6.59801e-07
3.34881e-07
-7.06495e-07
3.2705e-07
-7.60285e-07
3.19336e-07
-8.22951e-07
3.1116e-07
-8.96578e-07
3.01431e-07
-9.83527e-07
2.8822e-07
-1.08632e-06
2.68268e-07
-1.20737e-06
2.36316e-07
-1.34824e-06
1.83809e-07
-1.50831e-06
9.7044e-08
-1.68073e-06
-4.709e-08
-1.84347e-06
-2.88753e-07
-1.94341e-06
-6.91019e-07
-1.87721e-06
-1.32921e-06
-1.57524e-06
-2.13102e-06
-1.09975e-06
-2.74857e-06
-5.23316e-07
-2.85824e-06
-1.98443e-06
-2.12968e-08
3.3943e-07
-5.07444e-08
4.71053e-07
-8.23116e-08
5.07647e-07
-1.144e-07
5.21478e-07
-1.46274e-07
5.25863e-07
-1.77509e-07
5.24894e-07
-2.07863e-07
5.20415e-07
-2.37217e-07
5.13471e-07
-2.65551e-07
5.04756e-07
-2.92917e-07
4.94791e-07
-3.19429e-07
4.83986e-07
-3.45241e-07
4.72686e-07
-3.70548e-07
4.61177e-07
-3.95574e-07
4.49701e-07
-4.20571e-07
4.38458e-07
-4.45826e-07
4.27621e-07
-4.71667e-07
4.17339e-07
-4.98479e-07
4.07757e-07
-5.26724e-07
3.99022e-07
-5.56965e-07
3.91295e-07
-5.89903e-07
3.84759e-07
-6.2642e-07
3.79619e-07
-6.67628e-07
3.76089e-07
-7.1493e-07
3.74353e-07
-7.7009e-07
3.74495e-07
-8.35301e-07
3.76372e-07
-9.13268e-07
3.79398e-07
-1.00728e-06
3.82232e-07
-1.12129e-06
3.82282e-07
-1.25984e-06
3.7486e-07
-1.42763e-06
3.51597e-07
-1.62811e-06
2.97533e-07
-1.85886e-06
1.83661e-07
-2.09478e-06
-5.2841e-08
-2.25019e-06
-5.35608e-07
-2.21246e-06
-1.36693e-06
-1.95288e-06
-2.3906e-06
-1.48678e-06
-3.21467e-06
-8.2437e-07
-3.52065e-06
-2.8088e-06
-2.28697e-08
3.623e-07
-5.42547e-08
5.02438e-07
-8.77265e-08
5.41119e-07
-1.21537e-07
5.55289e-07
-1.54865e-07
5.59191e-07
-1.87249e-07
5.57277e-07
-2.18436e-07
5.51602e-07
-2.48325e-07
5.4336e-07
-2.76925e-07
5.33357e-07
-3.04326e-07
5.22191e-07
-3.30677e-07
5.10337e-07
-3.56167e-07
4.98177e-07
-3.81018e-07
4.86028e-07
-4.05471e-07
4.74154e-07
-4.29792e-07
4.62779e-07
-4.54271e-07
4.521e-07
-4.79237e-07
4.42305e-07
-5.05069e-07
4.33589e-07
-5.32224e-07
4.26177e-07
-5.61264e-07
4.20334e-07
-5.92893e-07
4.16389e-07
-6.28013e-07
4.14739e-07
-6.67776e-07
4.15852e-07
-7.13662e-07
4.20238e-07
-7.67562e-07
4.28395e-07
-8.3188e-07
4.4069e-07
-9.09658e-07
4.57176e-07
-1.00474e-06
4.77316e-07
-1.12199e-06
4.99536e-07
-1.26733e-06
5.20192e-07
-1.44745e-06
5.31722e-07
-1.66805e-06
5.18128e-07
-1.92568e-06
4.41298e-07
-2.17613e-06
1.97601e-07
-2.31229e-06
-3.99443e-07
-2.26293e-06
-1.41629e-06
-2.06207e-06
-2.59147e-06
-1.6522e-06
-3.62453e-06
-9.96674e-07
-4.17617e-06
-3.80547e-06
-2.48205e-08
3.8712e-07
-5.85099e-08
5.36128e-07
-9.41697e-08
5.76779e-07
-1.29875e-07
5.90994e-07
-1.64714e-07
5.9403e-07
-1.98192e-07
5.90755e-07
-2.30067e-07
5.83478e-07
-2.60276e-07
5.73568e-07
-2.88875e-07
5.61956e-07
-3.16009e-07
5.49325e-07
-3.41876e-07
5.36204e-07
-3.66707e-07
5.23008e-07
-3.90751e-07
5.10072e-07
-4.14266e-07
4.97669e-07
-4.37519e-07
4.86033e-07
-4.60794e-07
4.75375e-07
-4.84399e-07
4.6591e-07
-5.08686e-07
4.57877e-07
-5.34075e-07
4.51566e-07
-5.61082e-07
4.47341e-07
-5.90362e-07
4.45668e-07
-6.22754e-07
4.47131e-07
-6.59346e-07
4.52443e-07
-7.01543e-07
4.62436e-07
-7.51156e-07
4.78008e-07
-8.10494e-07
5.00028e-07
-8.82491e-07
5.29173e-07
-9.70872e-07
5.65696e-07
-1.08033e-06
6.08995e-07
-1.2166e-06
6.56463e-07
-1.38611e-06
7.01233e-07
-1.59319e-06
7.25209e-07
-1.82775e-06
6.75852e-07
-2.03151e-06
4.01366e-07
-2.1e-06
-3.30959e-07
-2.02145e-06
-1.49484e-06
-1.85374e-06
-2.75918e-06
-1.53793e-06
-3.94034e-06
-9.49176e-07
-4.76493e-06
-4.75465e-06
-2.72773e-08
4.14397e-07
-6.37303e-08
5.72581e-07
-1.01899e-07
6.14947e-07
-1.39655e-07
6.28749e-07
-1.75998e-07
6.30373e-07
-2.10423e-07
6.25181e-07
-2.42731e-07
6.15786e-07
-2.72925e-07
6.03763e-07
-3.01144e-07
5.90175e-07
-3.27608e-07
5.75789e-07
-3.5258e-07
5.61176e-07
-3.76339e-07
5.46767e-07
-3.99164e-07
5.32896e-07
-4.21324e-07
5.19829e-07
-4.43081e-07
5.0779e-07
-4.64696e-07
4.9699e-07
-4.8644e-07
4.87654e-07
-5.08612e-07
4.80048e-07
-5.3156e-07
4.74514e-07
-5.55715e-07
4.71496e-07
-5.81619e-07
4.71572e-07
-6.09971e-07
4.75483e-07
-6.4168e-07
4.84153e-07
-6.7792e-07
4.98675e-07
-7.20186e-07
5.20275e-07
-7.70359e-07
5.50201e-07
-8.30756e-07
5.8957e-07
-9.04189e-07
6.3913e-07
-9.93937e-07
6.98743e-07
-1.1037e-06
7.6623e-07
-1.23673e-06
8.34255e-07
-1.39115e-06
8.79635e-07
-1.54964e-06
8.34341e-07
-1.65807e-06
5.0979e-07
-1.65988e-06
-3.29145e-07
-1.59325e-06
-1.56147e-06
-1.48833e-06
-2.8641e-06
-1.26865e-06
-4.16001e-06
-7.84772e-07
-5.24881e-06
-5.53942e-06
-3.04117e-08
4.44809e-07
-7.01929e-08
6.12362e-07
-1.11211e-07
6.55966e-07
-1.51113e-07
6.68651e-07
-1.88833e-07
6.68093e-07
-2.23901e-07
6.60249e-07
-2.56214e-07
6.48099e-07
-2.85894e-07
6.33443e-07
-3.13199e-07
6.17479e-07
-3.38453e-07
6.01044e-07
-3.62002e-07
5.84725e-07
-3.84182e-07
5.68947e-07
-4.05301e-07
5.54015e-07
-4.25634e-07
5.40162e-07
-4.45426e-07
5.27582e-07
-4.64902e-07
5.16466e-07
-4.84277e-07
5.07029e-07
-5.03773e-07
4.99545e-07
-5.23642e-07
4.94383e-07
-5.44186e-07
4.92039e-07
-5.65784e-07
4.9317e-07
-5.88925e-07
4.98625e-07
-6.14242e-07
5.0947e-07
-6.42539e-07
5.26973e-07
-6.74812e-07
5.52548e-07
-7.12239e-07
5.87627e-07
-7.56135e-07
6.33466e-07
-8.07818e-07
6.90813e-07
-8.68306e-07
7.59231e-07
-9.38e-07
8.35924e-07
-1.01592e-06
9.12178e-07
-1.09231e-06
9.56016e-07
-1.15358e-06
8.95616e-07
-1.17314e-06
5.29354e-07
-1.15457e-06
-3.47724e-07
-1.13366e-06
-1.58238e-06
-1.10329e-06
-2.89447e-06
-9.94609e-07
-4.26869e-06
-6.37296e-07
-5.60613e-06
-6.17672e-06
-3.44539e-08
4.79263e-07
-7.82414e-08
6.56149e-07
-1.22428e-07
7.00152e-07
-1.64435e-07
7.10658e-07
-2.03192e-07
7.0685e-07
-2.38353e-07
6.95411e-07
-2.69993e-07
6.79739e-07
-2.98424e-07
6.61873e-07
-3.24072e-07
6.43128e-07
-3.47402e-07
6.24373e-07
-3.68857e-07
6.06181e-07
-3.88834e-07
5.88923e-07
-4.07665e-07
5.72846e-07
-4.25625e-07
5.58121e-07
-4.42931e-07
5.44888e-07
-4.59756e-07
5.33291e-07
-4.76244e-07
5.23517e-07
-4.92523e-07
5.15825e-07
-5.08723e-07
5.10583e-07
-5.24991e-07
5.08306e-07
-5.4151e-07
5.09689e-07
-5.58508e-07
5.15623e-07
-5.76278e-07
5.2724e-07