/*--------------------------------*- C++ -*----------------------------------*\
  =========                 |
  \\      /  F ield         | OpenFOAM: The Open Source CFD Toolbox
   \\    /   O peration     | Website:  https://openfoam.org
    \\  /    A nd           | Version:  12
     \\/     M anipulation  |
\*---------------------------------------------------------------------------*/
FoamFile
{
    format      ascii;
    class       volVectorField;
    location    "0.5";
    object      U;
}
// * * * * * * * * * * * * * * * * * * * * * * * * * * * * * * * * * * * * * //

dimensions      [0 1 -1 0 0 0 0];

internalField   nonuniform List<vector> 
1600
(
(5.50045e-05 -5.50278e-05 0)
(2.10119e-05 2.89888e-05 0)
(-0.000233084 0.000125837 0)
(-0.000613128 0.000185814 0)
(-0.0010646 0.000213879 0)
(-0.00154764 0.00022341 0)
(-0.00203874 0.000222842 0)
(-0.00252395 0.000216868 0)
(-0.0029952 0.000208228 0)
(-0.00344804 0.000198501 0)
(-0.00388016 0.000188498 0)
(-0.00429032 0.000178518 0)
(-0.00467768 0.000168553 0)
(-0.00504136 0.000158421 0)
(-0.0053802 0.000147867 0)
(-0.00569265 0.00013662 0)
(-0.00597674 0.000124416 0)
(-0.00623005 0.000111014 0)
(-0.00644977 9.61738e-05 0)
(-0.00663276 7.96339e-05 0)
(-0.00677582 6.11049e-05 0)
(-0.00687507 4.0463e-05 0)
(-0.00692433 2.01465e-05 0)
(-0.00692528 -4.72805e-06 0)
(-0.00686805 -3.13953e-05 0)
(-0.00675111 -6.03353e-05 0)
(-0.00656992 -9.14765e-05 0)
(-0.00632079 -0.000124672 0)
(-0.0060008 -0.000159634 0)
(-0.00560799 -0.000195744 0)
(-0.00514207 -0.000231989 0)
(-0.00460507 -0.000266848 0)
(-0.00400209 -0.000298181 0)
(-0.00334348 -0.000323704 0)
(-0.00264403 -0.000339074 0)
(-0.00192786 -0.000337693 0)
(-0.00123201 -0.000308166 0)
(-0.000614931 -0.000232186 0)
(-0.000152661 -0.000100538 0)
(2.12029e-05 2.06795e-05 0)
(-2.886e-05 -2.14585e-05 0)
(-0.000289083 0.000291749 0)
(-0.000727492 0.000551854 0)
(-0.00125775 0.000708316 0)
(-0.0018454 0.000787366 0)
(-0.00246143 0.000818193 0)
(-0.00308773 0.000820063 0)
(-0.00371148 0.000804498 0)
(-0.00432336 0.000778559 0)
(-0.00491671 0.000746568 0)
(-0.00548667 0.000711015 0)
(-0.00602958 0.000673135 0)
(-0.00654249 0.000633315 0)
(-0.00702276 0.000591411 0)
(-0.00746779 0.000546975 0)
(-0.00787487 0.000499421 0)
(-0.00824101 0.000448119 0)
(-0.00856291 0.000392457 0)
(-0.00883698 0.000331864 0)
(-0.00905935 0.000265824 0)
(-0.00922595 0.000193841 0)
(-0.00933242 0.000115642 0)
(-0.00937409 3.15765e-05 0)
(-0.00934657 -5.90741e-05 0)
(-0.00924541 -0.000156739 0)
(-0.00906661 -0.000260712 0)
(-0.0088066 -0.000370428 0)
(-0.00846266 -0.00048496 0)
(-0.00803323 -0.000602796 0)
(-0.00751841 -0.000721685 0)
(-0.00692032 -0.000838483 0)
(-0.00624362 -0.000948851 0)
(-0.00549608 -0.00104692 0)
(-0.00468895 -0.00112475 0)
(-0.00383896 -0.00117187 0)
(-0.00296796 -0.0011723 0)
(-0.00210518 -0.0011003 0)
(-0.00129523 -0.00091722 0)
(-0.000589907 -0.000586266 0)
(-9.8815e-05 -0.000151857 0)
(-0.000128028 0.000231786 0)
(-0.000550406 0.000729335 0)
(-0.00106272 0.00106455 0)
(-0.00162913 0.00126888 0)
(-0.00223341 0.00137992 0)
(-0.00285896 0.00142867 0)
(-0.00349521 0.00143643 0)
(-0.00413259 0.00141691 0)
(-0.00476267 0.00137911 0)
(-0.00537833 0.00132896 0)
(-0.00597367 0.00127018 0)
(-0.00654375 0.00120493 0)
(-0.00708435 0.00113421 0)
(-0.00759173 0.00105821 0)
(-0.00806238 0.000976593 0)
(-0.00849287 0.000888719 0)
(-0.00887969 0.000793796 0)
(-0.00921917 0.000690993 0)
(-0.00950743 0.000579504 0)
(-0.00974037 0.000458594 0)
(-0.00991376 0.000327647 0)
(-0.0100231 0.000186278 0)
(-0.0100639 3.43596e-05 0)
(-0.0100316 -0.000128561 0)
(-0.00992207 -0.000302 0)
(-0.00973148 -0.000485142 0)
(-0.00945675 -0.000676653 0)
(-0.00909583 -0.000874445 0)
(-0.00864807 -0.00107545 0)
(-0.00811462 -0.00127552 0)
(-0.00749876 -0.00146918 0)
(-0.00680627 -0.00164946 0)
(-0.00604573 -0.00180757 0)
(-0.00522872 -0.00193239 0)
(-0.00437005 -0.00200957 0)
(-0.00348708 -0.00201944 0)
(-0.00259966 -0.0019331 0)
(-0.00173805 -0.00170914 0)
(-0.000931948 -0.0012958 0)
(-0.000227533 -0.000614434 0)
(-0.00019143 0.00061391 0)
(-0.000712996 0.00125805 0)
(-0.00127415 0.00162993 0)
(-0.0018661 0.00185861 0)
(-0.00247964 0.00198973 0)
(-0.00310535 0.00205203 0)
(-0.0037387 0.00206557 0)
(-0.00437369 0.00204408 0)
(-0.00500364 0.00199716 0)
(-0.00562207 0.00193151 0)
(-0.00622304 0.00185164 0)
(-0.00680122 0.00176042 0)
(-0.00735177 0.00165939 0)
(-0.00787033 0.00154912 0)
(-0.00835283 0.0014295 0)
(-0.00879536 0.00129993 0)
(-0.00919405 0.00115958 0)
(-0.00954493 0.00100747 0)
(-0.00984394 0.000842626 0)
(-0.0100868 0.00066414 0)
(-0.0102691 0.000471255 0)
(-0.0103864 0.000263459 0)
(-0.0104339 4.05154e-05 0)
(-0.0104072 -0.000197554 0)
(-0.0103021 -0.00045006 0)
(-0.010115 -0.000715587 0)
(-0.00984284 -0.000991872 0)
(-0.00948386 -0.00127554 0)
(-0.00903769 -0.00156192 0)
(-0.00850574 -0.00184495 0)
(-0.00789145 -0.00211693 0)
(-0.00720055 -0.00236845 0)
(-0.00644112 -0.00258815 0)
(-0.00562359 -0.0027624 0)
(-0.00476027 -0.00287461 0)
(-0.00386413 -0.00290374 0)
(-0.00294827 -0.00282132 0)
(-0.00203569 -0.00258747 0)
(-0.00114872 -0.00213703 0)
(-0.000306787 -0.0012424 0)
(-0.000223568 0.00107247 0)
(-0.000803311 0.00184827 0)
(-0.00140194 0.00223682 0)
(-0.00201953 0.00247344 0)
(-0.00264761 0.00261354 0)
(-0.00327945 0.00268336 0)
(-0.00391414 0.00270038 0)
(-0.00454866 0.00267702 0)
(-0.00517827 0.00262238 0)
(-0.00579768 0.00254319 0)
(-0.00640149 0.00244424 0)
(-0.00698451 0.00232878 0)
(-0.00754182 0.00219877 0)
(-0.00806881 0.00205512 0)
(-0.00856113 0.00189794 0)
(-0.00901458 0.00172675 0)
(-0.00942505 0.00154072 0)
(-0.00978837 0.00133881 0)
(-0.0101003 0.00111989 0)
(-0.0103563 0.000882918 0)
(-0.010552 0.000626993 0)
(-0.0106826 0.000351508 0)
(-0.0107433 5.62336e-05 0)
(-0.0107295 -0.000258534 0)
(-0.0106369 -0.000591735 0)
(-0.0104614 -0.000941329 0)
(-0.0102001 -0.00130409 0)
(-0.00985079 -0.00167536 0)
(-0.00941283 -0.00204893 0)
(-0.0088872 -0.00241685 0)
(-0.00827674 -0.00276938 0)
(-0.00758631 -0.00309497 0)
(-0.00682281 -0.00338016 0)
(-0.00599495 -0.00360951 0)
(-0.00511269 -0.0037652 0)
(-0.00418581 -0.00382601 0)
(-0.00322416 -0.00376485 0)
(-0.00224968 -0.00354282 0)
(-0.00128623 -0.00307675 0)
(-0.00035019 -0.00197709 0)
(-0.00023778 0.00157103 0)
(-0.000850577 0.00247607 0)
(-0.00147819 0.00287376 0)
(-0.00212037 0.00310884 0)
(-0.00276685 0.00324937 0)
(-0.00341085 0.00332058 0)
(-0.00405309 0.00333754 0)
(-0.0046925 0.00331088 0)
(-0.00532597 0.00324863 0)
(-0.0059494 0.00315697 0)
(-0.00655821 0.00304053 0)
(-0.00714765 0.00290264 0)
(-0.00771301 0.00274544 0)
(-0.00824974 0.00257007 0)
(-0.00875341 0.00237682 0)
(-0.00921973 0.00216531 0)
(-0.00964446 0.00193473 0)
(-0.0100233 0.00168396 0)
(-0.0103518 0.00141177 0)
(-0.0106254 0.00111695 0)
(-0.0108394 0.000798448 0)
(-0.0109889 0.000455557 0)
(-0.0110688 8.80479e-05 0)
(-0.0110742 -0.000303619 0)
(-0.0110003 -0.000718019 0)
(-0.0108427 -0.00115253 0)
(-0.0105977 -0.00160303 0)
(-0.0102625 -0.0020637 0)
(-0.00983568 -0.00252688 0)
(-0.0093171 -0.00298293 0)
(-0.00870847 -0.00342028 0)
(-0.00801326 -0.00382546 0)
(-0.00723682 -0.00418323 0)
(-0.0063862 -0.00447666 0)
(-0.0054696 -0.00468699 0)
(-0.00449524 -0.00479283 0)
(-0.00347262 -0.0047675 0)
(-0.00242684 -0.0045702 0)
(-0.0013872 -0.00409439 0)
(-0.000377014 -0.00278019 0)
(-0.000242659 0.00208895 0)
(-0.000874179 0.00312858 0)
(-0.00152447 0.00353584 0)
(-0.00218936 0.00376582 0)
(-0.00285613 0.00390167 0)
(-0.00351658 0.00396955 0)
(-0.00417171 0.00398301 0)
(-0.00482144 0.00395104 0)
(-0.00546381 0.00388042 0)
(-0.0060957 0.00377651 0)
(-0.00671334 0.0036435 0)
(-0.00731257 0.00348454 0)
(-0.00788907 0.00330176 0)
(-0.0084385 0.00309637 0)
(-0.00895657 0.00286874 0)
(-0.009439 0.00261857 0)
(-0.00988154 0.002345 0)
(-0.0102798 0.00204684 0)
(-0.0106293 0.0017227 0)
(-0.0109254 0.00137118 0)
(-0.011163 0.000991045 0)
(-0.0113371 0.000581418 0)
(-0.0114422 0.000141998 0)
(-0.0114728 -0.000326685 0)
(-0.0114237 -0.000822973 0)
(-0.0112896 -0.00134377 0)
(-0.0110659 -0.00188423 0)
(-0.0107487 -0.00243752 0)
(-0.0103351 -0.00299471 0)
(-0.00982365 -0.00354465 0)
(-0.00921424 -0.00407406 0)
(-0.00850867 -0.00456768 0)
(-0.00771056 -0.00500852 0)
(-0.00682546 -0.005378 0)
(-0.00586054 -0.00565603 0)
(-0.00482386 -0.00582012 0)
(-0.00372662 -0.00584209 0)
(-0.00259944 -0.00567563 0)
(-0.0014787 -0.0051866 0)
(-0.000398313 -0.00363712 0)
(-0.000242995 0.00261498 0)
(-0.000885589 0.00379819 0)
(-0.00155436 0.00421944 0)
(-0.0022403 0.00444452 0)
(-0.00292825 0.00457346 0)
(-0.00360808 0.00463507 0)
(-0.00428027 0.00464236 0)
(-0.00494505 0.00460316 0)
(-0.00560111 0.00452314 0)
(-0.00624607 0.00440678 0)
(-0.00687685 0.00425769 0)
(-0.00748989 0.00407866 0)
(-0.00808133 0.00387167 0)
(-0.00864716 0.00363787 0)
(-0.00918334 0.00337762 0)
(-0.00968575 0.0030906 0)
(-0.0101502 0.00277587 0)
(-0.0105724 0.0024321 0)
(-0.0109477 0.0020577 0)
(-0.0112714 0.00165102 0)
(-0.0115383 0.00121053 0)
(-0.0117429 0.000735109 0)
(-0.0118795 0.000224244 0)
(-0.0119419 -0.000321624 0)
(-0.011924 -0.000900778 0)
(-0.0118195 -0.00150985 0)
(-0.0116226 -0.00214348 0)
(-0.0113278 -0.00279406 0)
(-0.0109304 -0.00345159 0)
(-0.0104268 -0.00410355 0)
(-0.00981504 -0.00473507 0)
(-0.00909464 -0.00532903 0)
(-0.00826736 -0.00586641 0)
(-0.00733736 -0.00632651 0)
(-0.0063113 -0.00668695 0)
(-0.00519806 -0.00692271 0)
(-0.00401187 -0.00700179 0)
(-0.00279033 -0.00686906 0)
(-0.00157784 -0.00635895 0)
(-0.000420296 -0.00454697 0)
(-0.000241686 0.0031441 0)
(-0.000891565 0.00448048 0)
(-0.0015766 0.00492202 0)
(-0.00228255 0.00514455 0)
(-0.00299226 0.00526638 0)
(-0.00369357 0.00532029 0)
(-0.00438605 0.0053197 0)
(-0.0050698 0.00527182 0)
(-0.00574379 0.00518146 0)
(-0.00640613 0.00505233 0)
(-0.00705428 0.00488744 0)
(-0.00768524 0.00468915 0)
(-0.0082956 0.00445918 0)
(-0.0088818 0.00419855 0)
(-0.00944008 0.00390751 0)
(-0.00996659 0.00358563 0)
(-0.0104573 0.00323184 0)
(-0.0109081 0.00284459 0)
(-0.0113143 0.002422 0)
(-0.0116711 0.00196209 0)
(-0.0119733 0.00146294 0)
(-0.012215 0.000923012 0)
(-0.0123899 0.000341423 0)
(-0.0124912 -0.000281697 0)
(-0.0125118 -0.000944811 0)
(-0.0124441 -0.00164455 0)
(-0.0122807 -0.00237535 0)
(-0.0120142 -0.00312911 0)
(-0.0116375 -0.003895 0)
(-0.0111447 -0.00465933 0)
(-0.0105309 -0.00540564 0)
(-0.0097931 -0.0061148 0)
(-0.00893088 -0.00676529 0)
(-0.00794686 -0.00733343 0)
(-0.00684738 -0.00779329 0)
(-0.00564271 -0.00811545 0)
(-0.00435102 -0.00826164 0)
(-0.003018 -0.00816484 0)
(-0.00169704 -0.00762435 0)
(-0.000446949 -0.00551773 0)
(-0.000240107 0.00367424 0)
(-0.000896387 0.00517385 0)
(-0.00159691 0.00564239 0)
(-0.00232256 0.00586577 0)
(-0.00305463 0.0059816 0)
(-0.00377905 0.00602756 0)
(-0.00449438 0.00601824 0)
(-0.00520032 0.00596076 0)
(-0.00589587 0.00585941 0)
(-0.00657942 0.00571728 0)
(-0.00724887 0.00553683 0)
(-0.00790163 0.00532004 0)
(-0.00853482 0.00506831 0)
(-0.00914528 0.00478244 0)
(-0.00972967 0.00446254 0)
(-0.0102845 0.00410799 0)
(-0.0108059 0.00371751 0)
(-0.01129 0.00328928 0)
(-0.0117324 0.00282103 0)
(-0.0121282 0.00231032 0)
(-0.012472 0.00175471 0)
(-0.0127577 0.00115207 0)
(-0.0129785 0.000500918 0)
(-0.0131268 -0.000199191 0)
(-0.0131944 -0.000947225 0)
(-0.0131723 -0.00174017 0)
(-0.0130511 -0.00257263 0)
(-0.012821 -0.0034364 0)
(-0.0124722 -0.00432014 0)
(-0.0119956 -0.00520924 0)
(-0.0113829 -0.00608567 0)
(-0.0106279 -0.00692806 0)
(-0.00972714 -0.00771178 0)
(-0.00868131 -0.00840907 0)
(-0.00749622 -0.00898884 0)
(-0.0061837 -0.00941504 0)
(-0.00476648 -0.00964045 0)
(-0.0032995 -0.00958314 0)
(-0.00184662 -0.00900303 0)
(-0.000481238 -0.00656426 0)
(-0.000239144 0.00420566 0)
(-0.000902716 0.0058784 0)
(-0.00161899 0.00638044 0)
(-0.00236469 0.00660849 0)
(-0.00311991 0.00672017 0)
(-0.00386888 0.00675876 0)
(-0.00460916 0.00674059 0)
(-0.00533994 0.00667312 0)
(-0.00606012 0.00656045 0)
(-0.00676822 0.00640527 0)
(-0.0074624 0.00620962 0)
(-0.00814053 0.0059751 0)
(-0.00880013 0.00570286 0)
(-0.00943854 0.00539344 0)
(-0.0100528 0.00504676 0)
(-0.0106399 0.00466197 0)
(-0.0111965 0.00423753 0)
(-0.0117187 0.00377124 0)
(-0.0122026 0.00326039 0)
(-0.0126433 0.00270193 0)
(-0.0130354 0.00209273 0)
(-0.0133726 0.00142989 0)
(-0.0136477 0.000711033 0)
(-0.0138523 -6.51819e-05 0)
(-0.013977 -0.000898585 0)
(-0.0140112 -0.00178701 0)
(-0.0139433 -0.00272571 0)
(-0.0137607 -0.00370687 0)
(-0.0134504 -0.00471914 0)
(-0.0129992 -0.0057473 0)
(-0.0123946 -0.00677192 0)
(-0.011626 -0.00776915 0)
(-0.010686 -0.00871057 0)
(-0.00957221 -0.00956305 0)
(-0.00828925 -0.0102883 0)
(-0.0068502 -0.0108412 0)
(-0.00528274 -0.0111622 0)
(-0.00365273 -0.0111508 0)
(-0.00203715 -0.0105221 0)
(-0.00052618 -0.00770784 0)
(-0.000239344 0.00474003 0)
(-0.000912091 0.0065953 0)
(-0.00164515 0.00713686 0)
(-0.00241183 0.00737344 0)
(-0.00319122 0.00748323 0)
(-0.00396613 0.00751555 0)
(-0.00473316 0.00748892 0)
(-0.00549102 0.00741152 0)
(-0.00623838 0.00728752 0)
(-0.00697381 0.00711944 0)
(-0.0076957 0.00690907 0)
(-0.00840225 0.00665772 0)
(-0.00909144 0.00636629 0)
(-0.00976108 0.00603515 0)
(-0.0104088 0.00566397 0)
(-0.0110319 0.00525167 0)
(-0.0116276 0.00479639 0)
(-0.0121926 0.0042955 0)
(-0.0127232 0.00374574 0)
(-0.0132148 0.00314334 0)
(-0.0136622 0.00248433 0)
(-0.014059 0.00176477 0)
(-0.0143976 0.000981114 0)
(-0.014669 0.000130742 0)
(-0.0148627 -0.000787517 0)
(-0.0149663 -0.00177289 0)
(-0.0149658 -0.00282193 0)
(-0.0148456 -0.00392789 0)
(-0.0145886 -0.00508008 0)
(-0.0141769 -0.00626325 0)
(-0.0135924 -0.0074569 0)
(-0.0128187 -0.00863466 0)
(-0.0118427 -0.00976368 0)
(-0.0106573 -0.010804 0)
(-0.00926436 -0.0117079 0)
(-0.00767731 -0.0124175 0)
(-0.00592918 -0.0128571 0)
(-0.00409925 -0.0129025 0)
(-0.00228066 -0.0122174 0)
(-0.00058424 -0.00897578 0)
(-0.000240946 0.00527964 0)
(-0.000925309 0.00732644 0)
(-0.00167676 0.007913 0)
(-0.00246576 0.00816178 0)
(-0.00327063 0.00827202 0)
(-0.00407285 0.00829946 0)
(-0.00486825 0.00826509 0)
(-0.00565506 0.00817812 0)
(-0.00643171 0.00804305 0)
(-0.00719676 0.00786243 0)
(-0.00794877 0.00763794 0)
(-0.00868628 0.00737075 0)
(-0.0094077 0.00706161 0)
(-0.0101114 0.00671072 0)
(-0.0107954 0.00631756 0)
(-0.0114579 0.00588083 0)
(-0.0120965 0.00539829 0)
(-0.0127085 0.00486687 0)
(-0.0132907 0.00428266 0)
(-0.0138392 0.0036411 0)
(-0.0143489 0.00293716 0)
(-0.0148137 0.00216566 0)
(-0.0152258 0.00132158 0)
(-0.0155759 0.000400572 0)
(-0.0158523 -0.000600442 0)
(-0.0160411 -0.00168273 0)
(-0.0161258 -0.00284494 0)
(-0.0160873 -0.00408233 0)
(-0.0159039 -0.00538585 0)
(-0.0155519 -0.00674115 0)
(-0.0150064 -0.0081274 0)
(-0.0142428 -0.00951602 0)
(-0.01324 -0.0108692 0)
(-0.0119833 -0.0121389 0)
(-0.0104692 -0.0132647 0)
(-0.00870983 -0.014172 0)
(-0.00674359 -0.0147629 0)
(-0.00466602 -0.0148829 0)
(-0.00259137 -0.0141354 0)
(-0.000658307 -0.0104028 0)
(-0.000243999 0.00582711 0)
(-0.000942686 0.00807415 0)
(-0.00171453 0.00871063 0)
(-0.00252755 0.00897494 0)
(-0.00335937 0.00908793 0)
(-0.00419034 0.00911196 0)
(-0.00501561 0.00907075 0)
(-0.00583296 0.00897474 0)
(-0.0066406 0.00882901 0)
(-0.00743706 0.00863633 0)
(-0.00822108 0.00839844 0)
(-0.00899149 0.00811651 0)
(-0.00974716 0.00779124 0)
(-0.010487 0.00742275 0)
(-0.0112098 0.0070104 0)
(-0.0119142 0.00655265 0)
(-0.0125987 0.00604696 0)
(-0.0132614 0.00548976 0)
(-0.0138999 0.00487647 0)
(-0.0145108 0.00420162 0)
(-0.0150898 0.00345902 0)
(-0.0156311 0.00264203 0)
(-0.0161275 0.00174381 0)
(-0.0165692 0.000757863 0)
(-0.016944 -0.000321416 0)
(-0.0172367 -0.00149814 0)
(-0.0174283 -0.00277405 0)
(-0.0174962 -0.00414761 0)
(-0.0174135 -0.00561282 0)
(-0.0171497 -0.00715768 0)
(-0.0166708 -0.0087624 0)
(-0.015942 -0.0103971 0)
(-0.0149302 -0.0120193 0)
(-0.0136091 -0.013571 0)
(-0.0119656 -0.0149765 0)
(-0.0100071 -0.0161382 0)
(-0.00777634 -0.0169277 0)
(-0.0053891 -0.0171507 0)
(-0.00298819 -0.0163368 0)
(-0.000751809 -0.0120325 0)
(-0.000248449 0.0063851 0)
(-0.000964258 0.00884098 0)
(-0.00175873 0.00953181 0)
(-0.00259772 0.00981464 0)
(-0.00345818 0.00993247 0)
(-0.0043194 0.00995449 0)
(-0.00517592 0.00990733 0)
(-0.00602517 0.00980287 0)
(-0.00686513 0.00964693 0)
(-0.00769433 0.00944271 0)
(-0.00851165 0.00919218 0)
(-0.00931627 0.00889666 0)
(-0.0101075 0.00855694 0)
(-0.0108849 0.00817315 0)
(-0.011648 0.00774462 0)
(-0.0123963 0.00726966 0)
(-0.0131291 0.00674545 0)
(-0.0138454 0.00616796 0)
(-0.0145439 0.00553194 0)
(-0.0152221 0.00483098 0)
(-0.0158769 0.00405764 0)
(-0.0165034 0.00320362 0)
(-0.0170949 0.00226 0)
(-0.0176421 0.00121768 0)
(-0.0181329 6.78878e-05 0)
(-0.018551 -0.00119715 0)
(-0.0188756 -0.00258357 0)
(-0.0190807 -0.00409459 0)
(-0.0191339 -0.00572915 0)
(-0.0189966 -0.00747982 0)
(-0.0186243 -0.00933016 0)
(-0.0179681 -0.0112511 0)
(-0.0169782 -0.0131964 0)
(-0.0156106 -0.0150977 0)
(-0.0138357 -0.0168598 0)
(-0.0116496 -0.0183552 0)
(-0.00909711 -0.0194131 0)
(-0.00631866 -0.0197834 0)
(-0.00349667 -0.0189016 0)
(-0.000868687 -0.0139197 0)
(-0.000254204 0.00695621 0)
(-0.000989934 0.00962963 0)
(-0.00180945 0.0103788 0)
(-0.00267656 0.0106828 0)
(-0.00356749 0.0108073 0)
(-0.00446051 0.0108285 0)
(-0.00534962 0.0107761 0)
(-0.0062319 0.0106637 0)
(-0.00710518 0.0104979 0)
(-0.00796796 0.0102826 0)
(-0.00881932 0.0100202 0)
(-0.00965879 0.00971217 0)
(-0.0104862 0.00935969 0)
(-0.0113018 0.00896301 0)
(-0.0121059 0.00852152 0)
(-0.0128988 0.00803349 0)
(-0.0136812 0.00749591 0)
(-0.0144531 0.00690438 0)
(-0.0152143 0.00625303 0)
(-0.015964 0.00553456 0)
(-0.0167002 0.00474024 0)
(-0.0174197 0.00386004 0)
(-0.018117 0.00288278 0)
(-0.0187842 0.00179634 0)
(-0.0194097 0.000588196 0)
(-0.0199775 -0.000754103 0)
(-0.0204657 -0.0022424 0)
(-0.0208453 -0.00388657 0)
(-0.0210788 -0.00569301 0)
(-0.0211191 -0.00766211 0)
(-0.0209087 -0.00978442 0)
(-0.0203812 -0.0120354 0)
(-0.0194636 -0.0143681 0)
(-0.0180852 -0.0167046 0)
(-0.0161887 -0.0189272 0)
(-0.0137484 -0.0208683 0)
(-0.0108043 -0.0222979 0)
(-0.00752595 -0.0228852 0)
(-0.00415168 -0.0219383 0)
(-0.00101289 -0.0161343 0)
(-0.000261187 0.00754291 0)
(-0.00101962 0.0104428 0)
(-0.00186675 0.0112541 0)
(-0.00276428 0.0115815 0)
(-0.00368767 0.0117141 0)
(-0.0046141 0.0117354 0)
(-0.00553708 0.0116783 0)
(-0.00645335 0.0115582 0)
(-0.00736061 0.0113827 0)
(-0.00825736 0.0111566 0)
(-0.00914289 0.0108827 0)
(-0.0100171 0.0105633 0)
(-0.0108805 0.0101997 0)
(-0.0117339 0.0097925 0)
(-0.0125786 0.00934139 0)
(-0.0134161 0.00884469 0)
(-0.0142481 0.00829937 0)
(-0.015076 0.00770076 0)
(-0.0159014 0.00704254 0)
(-0.0167251 0.00631662 0)
(-0.0175471 0.00551309 0)
(-0.0183661 0.00462024 0)
(-0.0191791 0.00362454 0)
(-0.0199803 0.0025107 0)
(-0.02076 0.00126186 0)
(-0.0215037 -0.000140037 0)
(-0.0221898 -0.00171386 0)
(-0.0227881 -0.00347845 0)
(-0.0232567 -0.00545085 0)
(-0.0235403 -0.00764351 0)
(-0.023567 -0.0100596 0)
(-0.0232486 -0.0126853 0)
(-0.0224818 -0.0154793 0)
(-0.0211563 -0.0183584 0)
(-0.0191704 -0.0211802 0)
(-0.0164574 -0.0237267 0)
(-0.013037 -0.0256835 0)
(-0.00911243 -0.0265991 0)
(-0.00500019 -0.0255961 0)
(-0.00118646 -0.0187641 0)
(-0.000269359 0.00814763 0)
(-0.00105331 0.0112833 0)
(-0.00193077 0.0121603 0)
(-0.00286122 0.0125129 0)
(-0.00381922 0.0126547 0)
(-0.00478078 0.0126766 0)
(-0.00573886 0.012615 0)
(-0.00668991 0.012487 0)
(-0.00763146 0.0123017 0)
(-0.00856209 0.0120646 0)
(-0.00948131 0.0117796 0)
(-0.0103895 0.0114495 0)
(-0.0112876 0.0110761 0)
(-0.0121775 0.0106608 0)
(-0.0130614 0.0102034 0)
(-0.0139419 0.00970257 0)
(-0.0148221 0.00915544 0)
(-0.0157051 0.00855732 0)
(-0.0165943 0.00790163 0)
(-0.0174926 0.00717973 0)
(-0.0184026 0.0063808 0)
(-0.0193258 0.00549165 0)
(-0.0202623 0.00449658 0)
(-0.0212098 0.00337713 0)
(-0.0221623 0.00211188 0)
(-0.0231086 0.000676505 0)
(-0.0240298 -0.000956294 0)
(-0.0248967 -0.00281664 0)
(-0.0256656 -0.00493596 0)
(-0.0262743 -0.00734431 0)
(-0.0266369 -0.0100651 0)
(-0.02664 -0.0131055 0)
(-0.0261415 -0.0164411 0)
(-0.0249756 -0.0199932 0)
(-0.0229704 -0.0235989 0)
(-0.0199859 -0.0269791 0)
(-0.0159907 -0.0297012 0)
(-0.0112205 -0.0311246 0)
(-0.00610278 -0.0300866 0)
(-0.00138482 -0.021918 0)
(-0.000278755 0.00877282 0)
(-0.00109118 0.0121542 0)
(-0.00200191 0.0131001 0)
(-0.00296803 0.0134796 0)
(-0.003963 0.0136312 0)
(-0.00496149 0.0136537 0)
(-0.00595588 0.0135871 0)
(-0.0069423 0.0134505 0)
(-0.00791816 0.0132547 0)
(-0.00888207 0.0130061 0)
(-0.00983384 0.0127098 0)
(-0.0107743 0.0123693 0)
(-0.0117052 0.0119874 0)
(-0.0126291 0.0115658 0)
(-0.0135493 0.0111053 0)
(-0.0144698 0.0106049 0)
(-0.0153952 0.0100621 0)
(-0.0163304 0.00947241 0)
(-0.0172807 0.00882937 0)
(-0.0182518 0.00812418 0)
(-0.0192492 0.00734552 0)
(-0.020278 0.0064792 0)
(-0.0213427 0.00550781 0)
(-0.0224458 0.00441011 0)
(-0.023587 0.00316035 0)
(-0.0247608 0.00172764 0)
(-0.0259543 7.52521e-05 0)
(-0.0271432 -0.00184014 0)
(-0.0282859 -0.00406845 0)
(-0.0293174 -0.00666394 0)
(-0.0301405 -0.00968033 0)
(-0.0306162 -0.0131602 0)
(-0.0305552 -0.0171155 0)
(-0.0297176 -0.0214929 0)
(-0.0278262 -0.0261236 0)
(-0.0246108 -0.0306636 0)
(-0.0199327 -0.0345197 0)
(-0.0140434 -0.0367465 0)
(-0.00752991 -0.0357137 0)
(-0.00158531 -0.025724 0)
(-0.000289497 0.0094211 0)
(-0.00113363 0.0130584 0)
(-0.00208093 0.0140766 0)
(-0.00308579 0.0144842 0)
(-0.00412033 0.0146457 0)
(-0.00515771 0.0146682 0)
(-0.00618962 0.0145954 0)
(-0.00721183 0.014449 0)
(-0.00822162 0.0142412 0)
(-0.00921769 0.01398 0)
(-0.0102002 0.0136715 0)
(-0.0111704 0.0133204 0)
(-0.0121309 0.0129305 0)
(-0.0130852 0.0125045 0)
(-0.0140377 0.0120436 0)
(-0.0149936 0.0115479 0)
(-0.0159592 0.0110153 0)
(-0.0169412 0.0104421 0)
(-0.0179475 0.00982222 0)
(-0.0189864 0.00914724 0)
(-0.020067 0.00840599 0)
(-0.0211988 0.00758404 0)
(-0.0223915 0.00666309 0)
(-0.0236541 0.00562002 0)
(-0.0249941 0.00442567 0)
(-0.0264151 0.00304307 0)
(-0.027914 0.00142585 0)
(-0.0294765 -0.000483904 0)
(-0.03107 -0.00275779 0)
(-0.0326339 -0.00548142 0)
(-0.0340664 -0.00875109 0)
(-0.0352077 -0.0126642 0)
(-0.0358193 -0.0172982 0)
(-0.0355641 -0.0226642 0)
(-0.0340173 -0.0286256 0)
(-0.0306867 -0.0347911 0)
(-0.0252172 -0.040356 0)
(-0.0178282 -0.0438708 0)
(-0.00935369 -0.0429008 0)
(-0.00172383 -0.0303107 0)
(-0.000301821 0.0100954 0)
(-0.0011814 0.0139998 0)
(-0.00216906 0.0150934 0)
(-0.00321619 0.0155297 0)
(-0.00429327 0.0157006 0)
(-0.00537167 0.0157217 0)
(-0.00644227 0.0156408 0)
(-0.00750047 0.0154823 0)
(-0.00854339 0.0152602 0)
(-0.0095699 0.0149844 0)
(-0.0105805 0.0146622 0)
(-0.0115771 0.0142996 0)
(-0.012563 0.0139017 0)
(-0.0135427 0.0134721 0)
(-0.0145218 0.0130132 0)
(-0.0155068 0.0125258 0)
(-0.0165056 0.012009 0)
(-0.0175269 0.0114599 0)
(-0.0185809 0.0108735 0)
(-0.0196789 0.0102425 0)
(-0.020834 0.0095565 0)
(-0.0220605 0.00880205 0)
(-0.0233744 0.00796122 0)
(-0.0247926 0.00701052 0)
(-0.0263325 0.00591895 0)
(-0.0280101 0.00464535 0)
(-0.0298371 0.00313486 0)
(-0.0318155 0.00131484 0)
(-0.0339305 -0.000909693 0)
(-0.0361376 -0.00366112 0)
(-0.0383439 -0.00709143 0)
(-0.0403824 -0.0113765 0)
(-0.0419739 -0.0166992 0)
(-0.0426739 -0.0232027 0)
(-0.0418478 -0.0308621 0)
(-0.0386599 -0.0393041 0)
(-0.0323105 -0.0474503 0)
(-0.0228914 -0.0530015 0)
(-0.0117005 -0.0521585 0)
(-0.00169163 -0.035757 0)
(-0.000316109 0.0107993 0)
(-0.00123564 0.0149824 0)
(-0.00226817 0.0161544 0)
(-0.00336171 0.0166197 0)
(-0.00448473 0.0167986 0)
(-0.00560646 0.0168158 0)
(-0.00671689 0.0167239 0)
(-0.00781096 0.0165498 0)
(-0.00888571 0.0163103 0)
(-0.00994021 0.0160167 0)
(-0.0109754 0.0156783 0)
(-0.011994 0.0153026 0)
(-0.0129999 0.0148957 0)
(-0.0139988 0.0144627 0)
(-0.0149972 0.0140071 0)
(-0.0160032 0.013531 0)
(-0.017026 0.0130346 0)
(-0.0180762 0.0125165 0)
(-0.0191664 0.0119731 0)
(-0.0203108 0.011399 0)
(-0.0215264 0.0107858 0)
(-0.0228327 0.0101223 0)
(-0.0242524 0.00939261 0)
(-0.0258117 0.00857508 0)
(-0.0275395 0.0076395 0)
(-0.0294671 0.00654345 0)
(-0.0316256 0.00522697 0)
(-0.0340411 0.00360541 0)
(-0.0367267 0.00156099 0)
(-0.0396699 -0.00106703 0)
(-0.042809 -0.00449521 0)
(-0.0459975 -0.00900276 0)
(-0.0489455 -0.0149281 0)
(-0.0511218 -0.0226419 0)
(-0.051614 -0.0323836 0)
(-0.0490525 -0.0439293 0)
(-0.0418305 -0.0559399 0)
(-0.029835 -0.0648539 0)
(-0.0152372 -0.0642764 0)
(-0.00155733 -0.0422344 0)
(-0.000332932 0.0115372 0)
(-0.00129799 0.0160115 0)
(-0.0023809 0.0172646 0)
(-0.0035258 0.0177583 0)
(-0.00469865 0.0179427 0)
(-0.00586622 0.0179524 0)
(-0.00701744 0.0178449 0)
(-0.00814682 0.0176508 0)
(-0.00925138 0.0173891 0)
(-0.0103305 0.0170737 0)
(-0.0113858 0.0167155 0)
(-0.0124206 0.0163237 0)
(-0.01344 0.0159061 0)
(-0.0144504 0.0154689 0)
(-0.0154595 0.015017 0)
(-0.0164765 0.0145539 0)
(-0.0175119 0.0140812 0)
(-0.018578 0.0135993 0)
(-0.0196894 0.0131069 0)
(-0.020863 0.0126009 0)
(-0.0221194 0.0120764 0)
(-0.023483 0.0115256 0)
(-0.0249833 0.0109371 0)
(-0.0266557 0.0102936 0)
(-0.0285419 0.00956934 0)
(-0.0306903 0.00872506 0)
(-0.0331547 0.00770112 0)
(-0.0359917 0.00640739 0)
(-0.0392539 0.00470942 0)
(-0.0429783 0.00241274 0)
(-0.047164 -0.000764244 0)
(-0.0517321 -0.00521721 0)
(-0.0564483 -0.01149 0)
(-0.0607546 -0.0202979 0)
(-0.0634108 -0.0323691 0)
(-0.0622719 -0.0479792 0)
(-0.054463 -0.0658685 0)
(-0.0400896 -0.0801829 0)
(-0.0225132 -0.080214 0)
(-0.00223104 -0.0509776 0)
(-0.000353111 0.0123147 0)
(-0.00137081 0.0170934 0)
(-0.00251089 0.0184298 0)
(-0.00371304 0.0189503 0)
(-0.00494018 0.0191363 0)
(-0.00615614 0.0191331 0)
(-0.00734874 0.0190041 0)
(-0.00851214 0.0187835 0)
(-0.00964351 0.0184936 0)
(-0.0107428 0.0181508 0)
(-0.0118123 0.0177681 0)
(-0.0128565 0.0173564 0)
(-0.0138812 0.016925 0)
(-0.0148939 0.0164817 0)
(-0.0159033 0.0160327 0)
(-0.0169196 0.0155827 0)
(-0.0179542 0.0151354 0)
(-0.0190207 0.014693 0)
(-0.020135 0.0142569 0)
(-0.0213163 0.0138274 0)
(-0.0225879 0.0134037 0)
(-0.0239784 0.0129836 0)
(-0.0255231 0.0125618 0)
(-0.0272659 0.0121291 0)
(-0.0292602 0.0116679 0)
(-0.0315714 0.0111478 0)
(-0.034277 0.0105171 0)
(-0.0374665 0.00969016 0)
(-0.0412402 0.0085294 0)
(-0.0457012 0.0068217 0)
(-0.050938 0.00423584 0)
(-0.056996 0.000267849 0)
(-0.0637885 -0.0058521 0)
(-0.0708167 -0.0153025 0)
(-0.0765476 -0.029743 0)
(-0.0780105 -0.05098 0)
(-0.0699936 -0.0773485 0)
(-0.0554275 -0.0986975 0)
(-0.0359749 -0.100553 0)
(-0.00527665 -0.0650053 0)
(-0.000377812 0.0131392 0)
(-0.00145731 0.0182362 0)
(-0.00266298 0.0196573 0)
(-0.00392941 0.0202013 0)
(-0.00521572 0.020383 0)
(-0.00648244 0.0203594 0)
(-0.00771626 0.0202005 0)
(-0.0089112 0.0199452 0)
(-0.0100649 0.0196194 0)
(-0.0111782 0.0192421 0)
(-0.0122545 0.0188288 0)
(-0.0132994 0.0183922 0)
(-0.0143198 0.0179431 0)
(-0.0153241 0.0174906 0)
(-0.016322 0.0170422 0)
(-0.017324 0.0166041 0)
(-0.0183425 0.0161816 0)
(-0.0193915 0.0157793 0)
(-0.0204877 0.0154014 0)
(-0.0216513 0.0150524 0)
(-0.0229073 0.0147365 0)
(-0.0242868 0.0144583 0)
(-0.0258293 0.014221 0)
(-0.0275843 0.0140259 0)
(-0.0296147 0.0138682 0)
(-0.031999 0.0137322 0)
(-0.0348347 0.0135825 0)
(-0.0382404 0.0133507 0)
(-0.0423628 0.0129151 0)
(-0.047373 0.0120708 0)
(-0.0534609 0.0104717 0)
(-0.0608204 0.00754295 0)
(-0.0695647 0.00228409 0)
(-0.0793357 -0.00720915 0)
(-0.088298 -0.0244013 0)
(-0.0910448 -0.0538746 0)
(-0.0843117 -0.0908593 0)
(-0.0713278 -0.118407 0)
(-0.0502669 -0.124845 0)
(-0.0114125 -0.0894616 0)
(-0.00040867 0.0140207 0)
(-0.00156186 0.0194502 0)
(-0.0028435 0.0209557 0)
(-0.00418235 0.0215177 0)
(-0.00553292 0.0216864 0)
(-0.00685203 0.021632 0)
(-0.00812546 0.0214323 0)
(-0.00934755 0.0211318 0)
(-0.010517 0.0207602 0)
(-0.0116359 0.02034 0)
(-0.0127094 0.0198888 0)
(-0.0137442 0.0194212 0)
(-0.0147488 0.0189493 0)
(-0.0157324 0.0184835 0)
(-0.0167052 0.0180321 0)
(-0.0176782 0.0176028 0)
(-0.0186636 0.0172023 0)
(-0.0196755 0.0168375 0)
(-0.0207303 0.0165158 0)
(-0.021848 0.0162459 0)
(-0.0230535 0.0160377 0)
(-0.0243785 0.0159034 0)
(-0.0258633 0.0158564 0)
(-0.0275598 0.0159103 0)
(-0.0295346 0.0160764 0)
(-0.0318727 0.0163584 0)
(-0.0346816 0.0167446 0)
(-0.0380964 0.0171956 0)
(-0.0422919 0.0176249 0)
(-0.0474822 0.0178612 0)
(-0.0539169 0.0175791 0)
(-0.0618717 0.0161569 0)
(-0.0716069 0.0122712 0)
(-0.0828041 0.00270637 0)
(-0.0919389 -0.0190051 0)
(-0.0931918 -0.0563159 0)
(-0.0875464 -0.101066 0)
(-0.076083 -0.137803 0)
(-0.0554004 -0.153106 0)
(-0.0179831 -0.129069 0)
(-0.000447976 0.0149721 0)
(-0.00169028 0.0207484 0)
(-0.00306053 0.0223358 0)
(-0.00448089 0.0229065 0)
(-0.00590034 0.0230495 0)
(-0.00727178 0.0229501 0)
(-0.00858068 0.0226954 0)
(-0.00982251 0.0223363 0)
(-0.0109978 0.0219073 0)
(-0.0121109 0.021434 0)
(-0.0131689 0.0209366 0)
(-0.0141805 0.0204312 0)
(-0.0151556 0.0199309 0)
(-0.0161042 0.0194466 0)
(-0.0170368 0.0189876 0)
(-0.0179644 0.0185622 0)
(-0.0188988 0.0181786 0)
(-0.0198528 0.0178456 0)
(-0.0208417 0.0175734 0)
(-0.0218838 0.017375 0)
(-0.0230021 0.0172662 0)
(-0.0242259 0.0172668 0)
(-0.0255931 0.0174006 0)
(-0.0271528 0.0176946 0)
(-0.0289683 0.0181769 0)
(-0.031121 0.0188725 0)
(-0.0337139 0.0197965 0)
(-0.036878 0.0209432 0)
(-0.0407809 0.0222697 0)
(-0.0456278 0.023649 0)
(-0.0516448 0.024789 0)
(-0.0590767 0.0249936 0)
(-0.0682903 0.0224088 0)
(-0.0786041 0.0119408 0)
(-0.085447 -0.0151624 0)
(-0.084294 -0.0603232 0)
(-0.0781288 -0.110058 0)
(-0.0676634 -0.154354 0)
(-0.0505794 -0.181097 0)
(-0.0198174 -0.17515 0)
(-0.000498939 0.0160112 0)
(-0.00185028 0.0221474 0)
(-0.00332415 0.0238095 0)
(-0.00483543 0.0243746 0)
(-0.00632671 0.0244737 0)
(-0.00774718 0.0243103 0)
(-0.00908317 0.0239822 0)
(-0.0103327 0.0235482 0)
(-0.0114993 0.0230479 0)
(-0.0125907 0.0225105 0)
(-0.0136168 0.0219579 0)
(-0.0145887 0.0214075 0)
(-0.0155177 0.0208727 0)
(-0.0164148 0.0203645 0)
(-0.0172906 0.0198923 0)
(-0.0181554 0.0194647 0)
(-0.0190197 0.0190906 0)
(-0.0198947 0.0187804 0)
(-0.0207931 0.0185468 0)
(-0.0217302 0.0184063 0)
(-0.022725 0.0183799 0)
(-0.0238018 0.0184945 0)
(-0.0249923 0.0187833 0)
(-0.0263373 0.0192854 0)
(-0.0278896 0.0200442 0)
(-0.0297158 0.0211033 0)
(-0.0318985 0.0225004 0)
(-0.0345396 0.0242583 0)
(-0.03776 0.026366 0)