/*--------------------------------*- C++ -*----------------------------------*\
  =========                 |
  \\      /  F ield         | OpenFOAM: The Open Source CFD Toolbox
   \\    /   O peration     | Website:  https://openfoam.org
    \\  /    A nd           | Version:  12
     \\/     M anipulation  |
\*---------------------------------------------------------------------------*/
FoamFile
{
    format      ascii;
    class       volScalarField;
    location    "5";
    object      epsilon;
}
// * * * * * * * * * * * * * * * * * * * * * * * * * * * * * * * * * * * * * //

dimensions      [0 2 -3 0 0 0 0];

internalField   nonuniform List<scalar> 
1600
(
2.04052e-05
7.64913e-05
0.000154686
0.000169779
0.000162311
0.000170504
0.000215419
0.000334399
0.000461573
0.000595061
0.000906269
0.0012198
0.00139848
0.00155399
0.0017914
0.0020978
0.00241668
0.00275296
0.00310876
0.00348501
0.0038992
0.00434807
0.00485884
0.00543546
0.00612452
0.0067862
0.0074359
0.00800939
0.00849854
0.00876604
0.00887159
0.00867555
0.00790384
0.00660981
0.0048131
0.00272399
0.00126042
0.000503293
0.000153314
3.06413e-05
9.88529e-05
0.000125323
0.000163311
0.000165291
0.000170087
0.00020893
0.00034604
0.000675638
0.00115198
0.00178389
0.00314383
0.00415089
0.00437302
0.00423991
0.0040054
0.00387387
0.00379672
0.00376639
0.00376613
0.00384281
0.0039616
0.00413109
0.00432787
0.00456241
0.0048482
0.00519811
0.00559218
0.00604635
0.00650692
0.00690816
0.00709408
0.00712612
0.00665614
0.00574529
0.00419524
0.00235283
0.000943192
0.000392235
0.000135768
5.62735e-05
0.000295082
0.000318276
0.000342942
0.000346418
0.000407581
0.000660747
0.00132614
0.00256933
0.0042435
0.00506509
0.00515301
0.00447242
0.00408807
0.00368615
0.00333742
0.00311214
0.00292765
0.0028101
0.00274943
0.00272594
0.00272304
0.00276782
0.00285576
0.00298542
0.00314819
0.00334378
0.00357818
0.00385535
0.00417683
0.00455186
0.00498477
0.00538212
0.00556592
0.00548392
0.00475287
0.00315046
0.000989697
0.000260019
8.84152e-05
4.73465e-05
0.000685925
0.000632856
0.000657483
0.000741512
0.00108086
0.00199095
0.00361336
0.00493782
0.00532145
0.00494916
0.00441841
0.00348837
0.00297589
0.00254752
0.00234168
0.00217574
0.0020891
0.00204667
0.00203226
0.00203655
0.0020792
0.00213419
0.00221168
0.00230445
0.00241857
0.00255296
0.00271493
0.00290758
0.00313522
0.00339866
0.00369635
0.00403414
0.00444297
0.00488483
0.0050554
0.0046348
0.00232027
0.000403535
8.05697e-05
3.5441e-05
0.00132156
0.00109225
0.00120145
0.0015366
0.00238864
0.0038502
0.00492272
0.00518585
0.00484917
0.00387618
0.00290557
0.00242137
0.00209196
0.00188775
0.00178691
0.00173502
0.00171772
0.00171743
0.00175189
0.00179109
0.00184537
0.0019019
0.00196901
0.00204433
0.00213506
0.0022443
0.00238041
0.00254751
0.0027491
0.00298414
0.00324716
0.00353338
0.00384843
0.00422973
0.00478094
0.00503784
0.00449098
0.0012985
0.000164388
4.4739e-05
0.0022529
0.00174414
0.00201103
0.00263755
0.00376176
0.00467134
0.00491524
0.00466425
0.00352376
0.0025578
0.00207545
0.00179708
0.00163677
0.00156335
0.0015365
0.00153167
0.00155485
0.00158722
0.00162868
0.00166994
0.00171669
0.00176618
0.0018247
0.00189365
0.00197906
0.00208547
0.00221946
0.00238593
0.00258912
0.00282928
0.00310267
0.00339767
0.00369434
0.00398653
0.00434547
0.00479671
0.00497721
0.0034118
0.000509911
8.99885e-05
0.00346189
0.00257704
0.00296692
0.00368795
0.00441743
0.00465424
0.00447959
0.00341281
0.00236857
0.00186405
0.00160776
0.00147441
0.00141574
0.00139731
0.00139566
0.00141379
0.00143553
0.00145721
0.00147931
0.00150155
0.001528
0.00156155
0.00160728
0.00166947
0.00175412
0.00186736
0.00201616
0.00220671
0.00244331
0.002725
0.00304152
0.00337161
0.00369146
0.00396764
0.0042509
0.00461553
0.00484403
0.00465224
0.00130443
0.000207051
0.00477429
0.00348862
0.00385605
0.00432444
0.00450976
0.00435025
0.00347138
0.00232206
0.00175637
0.00148756
0.00135913
0.00130225
0.00128203
0.00127742
0.00127803
0.00128051
0.00128029
0.00127479
0.00127043
0.00126867
0.00127255
0.00128884
0.00132098
0.00137327
0.00145213
0.00156436
0.00171883
0.00192538
0.00219374
0.00252965
0.00292796
0.00336302
0.00378355
0.00416397
0.00437044
0.00459762
0.00483172
0.00490041
0.00282071
0.000513009
0.00591497
0.0043243
0.00452407
0.004618
0.00435237
0.00363822
0.0024628
0.00174265
0.00142334
0.00127737
0.00121124
0.00118238
0.00116928
0.00115722
0.00114014
0.00111743
0.00108951
0.00106004
0.00103412
0.00101703
0.0010102
0.00101048
0.00103345
0.00107538
0.0011439
0.00124534
0.00138959
0.00158942
0.00186056
0.00221921
0.00267529
0.00321889
0.00380174
0.00434339
0.00469255
0.00486277
0.00502505
0.00510345
0.00435698
0.00137475
0.00676989
0.00495931
0.00491338
0.00460308
0.00394099
0.0028061
0.00185123
0.00141769
0.00122733
0.0011412
0.00110066
0.00107888
0.00105549
0.00102435
0.000984891
0.000940122
0.000894148
0.000851488
0.00081609
0.000791215
0.000779448
0.000776355
0.000790817
0.0008249
0.000881617
0.000967703
0.00109254
0.00127002
0.00151951
0.00186573
0.00233484
0.00294207
0.00366613
0.00441368
0.00499227
0.00521973
0.00530245
0.0053183
0.00492807
0.00247663
0.0073643
0.00537244
0.00510303
0.0044595
0.00335127
0.00215065
0.00150088
0.00121963
0.00109579
0.00103788
0.00100643
0.000975809
0.000935594
0.000885808
0.000829896
0.000772959
0.00071979
0.000673815
0.000637358
0.000612165
0.000600077
0.000596487
0.000606473
0.000634044
0.000680078
0.000750591
0.000853916
0.00100331
0.00121889
0.00152986
0.00197448
0.00259306
0.00340502
0.00436266
0.00524792
0.00566056
0.00577756
0.00571953
0.00537292
0.00358441
0.00771578
0.00557589
0.00507386
0.00414501
0.0027741
0.00174186
0.00128232
0.00108494
0.000995985
0.000951873
0.000916165
0.000872057
0.000816899
0.000754582
0.000690698
0.000630521
0.000577776
0.000534366
0.000501137
0.00047878
0.000468084
0.000464884
0.000472486
0.00049467
0.000531824
0.000588796
0.000672676
0.000795108
0.000974873
0.00124166
0.00163985
0.0022278
0.00306185
0.00414703
0.00534578
0.00608558
0.00627443
0.00616315
0.00577479
0.0045016
0.00771038
0.00557282
0.00495653
0.00375615
0.00230183
0.00148024
0.00113353
0.000984572
0.00091544
0.000873826
0.000829069
0.000772997
0.000707918
0.000639838
0.000574722
0.000516809
0.000468285
0.000429719
0.000400925
0.000381893
0.00037281
0.000370125
0.000376126
0.000393964
0.000424029
0.000470105
0.000538053
0.000637657
0.000785341
0.00100873
0.00135322
0.00188808
0.00270258
0.00386994
0.00535065
0.0065217
0.00687398
0.00674837
0.00615675
0.0053677
0.00761537
0.00550241
0.00471773
0.00336047
0.00196132
0.00130108
0.00102515
0.000905035
0.000846809
0.000801907
0.000748257
0.000683852
0.000613918
0.000545137
0.000482732
0.000429521
0.000386332
0.000352801
0.000328149
0.000311946
0.00030419
0.000301908
0.000306659
0.000321071
0.000345618
0.00038326
0.000438786
0.000520244
0.000641475
0.000826777
0.00111883
0.00158953
0.00234667
0.00351288
0.00514033
0.00683692
0.00748037
0.00740005
0.00666399
0.00617898
0.00738542
0.00533453
0.00442355
0.00300163
0.00172939
0.00117239
0.000941957
0.000840206
0.000787022
0.000737132
0.000676676
0.000607595
0.000536583
0.000470039
0.000412009
0.000364009
0.000325891
0.000296732
0.000275468
0.00026143
0.000254649
0.000252633
0.000256377
0.000268124
0.000288423
0.000319637
0.000365691
0.000433173
0.000533543
0.000687525
0.000933511
0.00134184
0.00203166
0.00316643
0.00486449
0.00698646
0.00812166
0.0081276
0.0072268
0.00697603
0.00698514
0.00510289
0.00412003
0.00270711
0.00156373
0.00107674
0.000876519
0.000787221
0.000735209
0.000680772
0.000615918
0.000544994
0.000475188
0.000412152
0.000358762
0.00031554
0.000281714
0.000256068
0.000237433
0.000224995
0.000218894
0.000217039
0.000219981
0.00022966
0.000246684
0.000273
0.000311875
0.000368748
0.000453061
0.000582132
0.000789206
0.00113928
0.00175463
0.00283429
0.00459645
0.00701586
0.00875247
0.00894301
0.00785714
0.00775792
0.00651279
0.00485143
0.00382743
0.00247353
0.00144271
0.00100441
0.000824772
0.00074369
0.000691198
0.000633441
0.000566258
0.000495361
0.000427864
0.000368564
0.000319384
0.000280161
0.000249761
0.000226836
0.000210197
0.000198955
0.000193298
0.000191527
0.000193839
0.000201905
0.00021638
0.000238927
0.000272331
0.000321178
0.000393323
0.000503183
0.000678991
0.000978566
0.00151955
0.00251828
0.00427271
0.00692739
0.00932321
0.00982281
0.00854747
0.00853805
0.005956
0.00461233
0.00356465
0.00229408
0.00135544
0.0009504
0.000784126
0.000708158
0.000654773
0.000595045
0.000527099
0.000457312
0.000392457
0.00033658
0.000290911
0.000254859
0.000227099
0.000206233
0.000191082
0.000180774
0.00017537
0.000173621
0.00017544
0.00018224
0.000194709
0.000214309
0.000243488
0.000286216
0.000349158
0.000444409
0.000595762
0.000853565
0.00132721
0.00223989
0.00395238
0.0067506
0.00981304
0.010759
0.00933882
0.00931932
0.00539848
0.00437828
0.00333531
0.00216002
0.00129362
0.000909645
0.00075241
0.000679506
0.000625445
0.000564973
0.000497384
0.000429255
0.000366956
0.000313971
0.000271073
0.000237434
0.000211647
0.00019231
0.000178263
0.00016866
0.000163392
0.000161609
0.000163035
0.000168838
0.000179719
0.000196982
0.000222846
0.000260862
0.000316817
0.000401053
0.000533629
0.000757686
0.00117177
0.00199545
0.0036372
0.00653243
0.0102152
0.0117234
0.0102168
0.0100984
0.00476522
0.0041693
0.00314566
0.00206251
0.00125473
0.000883198
0.000728526
0.00065684
0.000602505
0.00054232
0.000475905
0.000409727
0.000349755
0.000299064
0.000258222
0.000226329
0.000201964
0.00018373
0.000170481
0.000161391
0.000156184
0.000154329
0.000155504
0.000160546
0.000170099
0.000185438
0.000208676
0.000243036
0.000293645
0.000369645
0.000488113
0.000685835
0.00105004
0.00179012
0.00334474
0.00629447
0.0105094
0.0127155
0.0112119
0.010883
0.00425751
0.00399036
0.00299284
0.00199726
0.00123431
0.000863315
0.000711323
0.000639342
0.000585132
0.000526104
0.000461522
0.000397371
0.000339262
0.000290326
0.000251044
0.000220457
0.000197123
0.000179651
0.000166919
0.000158142
0.00015292
0.000150947
0.000152097
0.000156662
0.000165336
0.000179256
0.000200298
0.000231434
0.000277804
0.000347691
0.000455748
0.0006333
0.000956385
0.00161946
0.00307599
0.00605847
0.010708
0.0137214
0.012321
0.0116618
0.00382898
0.00382468
0.0028894
0.00195417
0.00123722
0.000863171
0.00069966
0.000626327
0.000572368
0.000515177
0.00045285
0.000390907
0.000335332
0.000288197
0.000250033
0.00022008
0.000197062
0.00017972
0.000167056
0.000158306
0.000152987
0.000150808
0.000151707
0.000155773
0.000163864
0.000176979
0.000196644
0.000225709
0.000268973
0.000334004
0.000434136
0.000596824
0.000887331
0.00148269
0.00283352
0.00579349
0.0108339
0.0147308
0.0135681
0.0124431
0.00345012
0.00368524
0.00282474
0.00194645
0.0012512
0.000869606
0.000698332
0.0006175
0.000563724
0.000508732
0.000449526
0.000390955
0.000336444
0.000289878
0.000252013
0.000222206
0.000199283
0.000182062
0.000169518
0.000160886
0.000155663
0.000153599
0.000154385
0.000157929
0.000165301
0.000177385
0.000195934
0.000223815
0.000265391
0.000327554
0.00042318
0.000575214
0.000839228
0.00137721
0.0026234
0.00552954
0.0108928
0.0157704
0.0149212
0.0132127
0.0031062
0.00357434
0.00279611
0.00195713
0.00128283
0.000886694
0.000702058
0.000614541
0.000558002
0.000505642
0.000450132
0.000393276
0.000340411
0.000294812
0.00025744
0.000227835
0.000205009
0.000187848
0.000175346
0.000166733
0.000161481
0.000159359
0.000160081
0.000163319
0.000170271
0.000181791
0.000199327
0.000225543
0.000265043
0.000325636
0.000419129
0.000565491
0.000811817
0.00130097
0.00244512
0.00526237
0.0109101
0.0168137
0.0163995
0.0139749
0.00278361
0.00348455
0.0028017
0.00198763
0.00133486
0.000921388
0.000713335
0.000616467
0.000557523
0.000506111
0.000452701
0.00039895
0.00034862
0.000304321
0.000267359
0.000237735
0.000214707
0.00019729
0.000184552
0.00017574
0.000170326
0.000168131
0.000168847
0.000171943
0.000178681
0.000189926
0.000206981
0.000232449
0.00027077
0.000329272
0.000419828
0.000563065
0.000800296
0.00124873
0.00230305
0.00500445
0.0108694
0.017863
0.0179973
0.0147154
0.00247864
0.00341885
0.00282398
0.0020456
0.0014046
0.000973284
0.000737262
0.000623572
0.000559549
0.000508259
0.000458097
0.00040777
0.000359874
0.000317
0.000280625
0.000251048
0.000227796
0.00021007
0.000197041
0.000187995
0.000182411
0.00018018
0.000180936
0.000184022
0.000190742
0.000201956
0.000218871
0.000244032
0.000281878
0.000339933
0.000430161
0.000571027
0.000798672
0.00122308
0.002193
0.00476681
0.0107589
0.0188915
0.0197165
0.0154344
0.00218072
0.0033541
0.00286846
0.00212944
0.00149747
0.00104513
0.000777797
0.000639642
0.000565879
0.000513099
0.000465392
0.000418362
0.000373263
0.000332246
0.000296828
0.00026756
0.000244245
0.0002263
0.000213028
0.000203791
0.000198076
0.000195888
0.000196729
0.000199915
0.000206799
0.000218198
0.000235275
0.00026056
0.000298515
0.000356811
0.00044774
0.000589789
0.000814069
0.0012149
0.00211274
0.00455691
0.0106253
0.0198587
0.0215636
0.0161199
0.00189221
0.00329881
0.00293847
0.0022187
0.00160733
0.00113901
0.000838508
0.000671379
0.000579992
0.00052213
0.000474738
0.000430335
0.000388117
0.000349367
0.000315398
0.000286882
0.000263855
0.000245949
0.000232626
0.000223348
0.000217613
0.000215618
0.0002166
0.000219996
0.000227222
0.000239008
0.000256537
0.000282374
0.000321055
0.000380424
0.000473126
0.000618002
0.000843267
0.00122466
0.00207002
0.00437557
0.010488
0.0207829
0.0234895
0.0167698
0.00160257
0.00319715
0.00298086
0.00234576
0.00173629
0.00125531
0.000922761
0.000722013
0.000607855
0.000538587
0.000487928
0.00044433
0.000404359
0.000367925
0.00033578
0.000308499
0.000286228
0.000268763
0.000255715
0.000246668
0.000241101
0.000239545
0.000240741
0.000244474
0.000252243
0.000264621
0.000282904
0.000309756
0.000349836
0.000411201
0.000506788
0.00065612
0.000886114
0.00125757
0.00205467
0.00421285
0.0102717
0.0216526
0.0254691
0.0173777
0.00134303
0.00307738
0.00298495
0.00248049
0.00188229
0.00139623
0.00103617
0.000799396
0.000655485
0.000567847
0.000508564
0.000462392
0.000422879
0.000388056
0.000357685
0.000331926
0.00031083
0.000294248
0.000281869
0.000273415
0.000268262
0.00026747
0.000268983
0.000273222
0.000281781
0.000295001
0.000314401
0.000342821
0.000385093
0.000449534
0.000549265
0.00070465
0.000942621
0.00131045
0.00206244
0.0040882
0.0100373
0.022417
0.0274123
0.017943
0.00112265
0.00284854
0.00298075
0.00261089
0.00203039
0.00155235
0.00117755
0.000909524
0.000732496
0.000619362
0.000544423
0.000490271
0.000447579
0.000412165
0.000382403
0.000357683
0.000337684
0.000322128
0.000310638
0.00030305
0.000298593
0.00029875
0.000300771
0.000305805
0.000315381
0.00032981
0.000350832
0.000381561
0.000427029
0.000495914
0.000601354
0.000764738
0.00101385
0.00138989
0.00211402
0.00402817
0.00978896
0.0230491
0.0292368
0.0184709
0.00093629
0.00246521
0.00296878
0.00271787
0.00218859
0.00172505
0.0013476
0.00105773
0.000848945
0.000705132
0.00060666
0.000537138
0.000485524
0.000445462
0.000413621
0.000388261
0.000368368
0.000353302
0.000342454
0.000335548
0.00033214
0.0003328
0.000335623
0.000341898
0.000352741
0.000368889
0.000392267
0.000426395
0.00047644
0.000551693
0.000665033
0.000839506
0.00110351
0.0015006
0.00220725
0.00401487
0.00961402
0.0235394
0.0307997
0.0189688
0.000777255
0.00195063
0.0028933
0.00273509
0.00231983
0.00189651
0.00154099
0.00124788
0.00101775
0.000844358
0.000716947
0.00062362
0.000554562
0.000502604
0.000462996
0.000432741
0.000409856
0.000393072
0.000381345
0.000374024
0.00037089
0.000371845
0.000375306
0.000382775
0.000395313
0.000413991
0.000440878
0.000480153
0.000536921
0.00062173
0.000746616
0.000938114
0.00122347
0.00165804
0.00237595
0.00413346
0.00955713
0.0239403
0.031989
0.019468
0.00068409
0.0014557
0.00267691
0.00267468
0.00245147
0.00207348
0.00175194
0.00147666
0.00124189
0.0010484
0.000893478
0.000772093
0.000678134
0.000606019
0.000550998
0.000509357
0.00047817
0.000455445
0.000439411
0.000429311
0.000423922
0.000424639
0.000428234
0.000436488
0.0004513
0.000473964
0.000506477
0.000554293
0.000621933
0.000722866
0.000866889
0.00108858
0.0014097
0.00191403
0.00269014
0.00448802
0.00979235
0.0244912
0.0326628
0.0199495
0.000691594
0.00114404
0.00223419
0.0025209
0.00244966
0.00224982
0.00199859
0.00176446
0.00154846
0.00135127
0.00117785
0.00102976
0.000906839
0.000806412
0.000725745
0.000662049
0.000612658
0.000575341
0.000548397
0.000531074
0.000519532
0.000518679
0.000522059
0.000531314
0.000550029
0.000580554
0.000624163
0.000689196
0.000778353
0.000912041
0.00109457
0.00137901
0.00177261
0.00241925
0.00335589
0.00538545
0.0107486
0.0254776
0.0329465
0.0201472
0.00091318
0.000970056
0.00172609
0.00218893
0.00241967
0.00239367
0.00228008
0.00211317
0.0019333
0.00175123
0.00157327
0.00140717
0.00125684
0.00113021
0.00102474
0.000938701
0.000869908
0.000817222
0.000776997
0.000751096
0.00073446
0.000734947
0.000742221
0.000760667
0.000795823
0.000849262
0.000923275
0.00103341
0.00117805
0.00139352
0.00167237
0.00210821
0.00267662
0.00364137
0.00494522
0.00755338
0.0131763
0.027388
0.0329656
0.0201908
0.0013352
0.00104402
0.00159519
0.0021884
0.00256181
0.0027558
0.00280405
0.00275399
0.00263529
0.00247582
0.00230237
0.00212727
0.00196031
0.0018081
0.00167654
0.00156803
0.00148298
0.00142244
0.00138065
0.00136577
0.00137208
0.00139547
0.00144512
0.00152553
0.0016342
0.00178525
0.00197749
0.00223125
0.00255357
0.0030083
0.00357414
0.00441262
0.00545727
0.00715719
0.00928027
0.0131738
0.0188677
0.0310348
0.0329338
0.0197465
0.0021481
0.00152047
0.002228
0.00303169
0.00366871
0.0041457
0.00441297
0.0045102
0.0044828
0.00438541
0.00423275
0.00407019
0.00391576
0.0037821
0.00367892
0.00361056
0.00359498
0.00361536
0.00367204
0.00379093
0.00395933
0.00419099
0.00447603
0.00484681
0.00529132
0.00584352
0.00650689
0.0073128
0.00829135
0.00943934
0.0108707
0.0127313
0.0150949
0.0182914
0.0220626
0.027698
0.0326884
0.0379395
0.0342776
0.0186902
0.00386014
0.00367856
0.00662872
0.00919345
0.0107226
0.011683
0.0122066
0.0124594
0.0125105
0.0124694
0.0123711
0.0122792
0.0122654
0.0123136
0.0124398
0.0127005
0.0130604
0.0135687
0.0141493
0.0149031
0.01575
0.0168016
0.0179715
0.0193668
0.0209346
0.0227293
0.0247981
0.0270473
0.0297588
0.0325045
0.0360503
0.0392018
0.0437106
0.046868
0.0520487
0.0533883
0.0516748
0.0448329
0.0348897
0.0165132
0.0026059
0.00416948
0.00554373
0.00709298
0.00848927
0.00973709
0.0108003
0.0116464
0.0123251
0.0127872
0.0130943
0.0132756
0.0133658
0.0133613
0.013334
0.0132734
0.0131876
0.0130998
0.0130147
0.0129435
0.0128912
0.0128639
0.0128724
0.0129019
0.0129785
0.0130658
0.0132554
0.0134019
0.013715
0.013919
0.0143572
0.0146136
0.0151722
0.0155663
0.0164454
0.0169473
0.0178132
0.0178061
0.0171783
0.0143418
)
;

boundaryField
{
    movingWall
    {
        type            epsilonWallFunction;
        value           nonuniform List<scalar> 
40
(
0.0026059
0.00416948
0.00554373
0.00709298
0.00848927
0.00973709
0.0108003
0.0116464
0.0123251
0.0127872
0.0130943
0.0132756
0.0133658
0.0133613
0.013334
0.0132734
0.0131876
0.0130998
0.0130147
0.0129435
0.0128912
0.0128639
0.0128724
0.0129019
0.0129785
0.0130658
0.0132554
0.0134019
0.013715
0.013919
0.0143572
0.0146136
0.0151722
0.0155663
0.0164454
0.0169473
0.0178132
0.0178061
0.0171783
0.0143418
)
;
    }
    fixedWalls
    {
        type            epsilonWallFunction;
        value           nonuniform List<scalar> 
120
(
2.04052e-05
9.88529e-05
0.000295082
0.000685925
0.00132156
0.0022529
0.00346189
0.00477429
0.00591497
0.00676989
0.0073643
0.00771578
0.00771038
0.00761537
0.00738542
0.00698514
0.00651279
0.005956
0.00539848
0.00476522
0.00425751
0.00382898
0.00345012
0.0031062
0.00278361
0.00247864
0.00218072
0.00189221
0.00160257
0.00134303
0.00112265
0.00093629
0.000777255
0.00068409
0.000691594
0.00091318
0.0013352
0.0021481
0.00386014
0.0026059
3.06413e-05
5.62735e-05
4.73465e-05
3.5441e-05
4.4739e-05
8.99885e-05
0.000207051
0.000513009
0.00137475
0.00247663
0.00358441
0.0045016
0.0053677
0.00617898
0.00697603
0.00775792
0.00853805
0.00931932
0.0100984
0.010883
0.0116618
0.0124431
0.0132127
0.0139749
0.0147154
0.0154344
0.0161199
0.0167698
0.0173777
0.017943
0.0184709
0.0189688
0.019468
0.0199495
0.0201472
0.0201908
0.0197465
0.0186902
0.0165132
0.0143418
2.04052e-05
7.64913e-05
0.000154686
0.000169779
0.000162311
0.000170504
0.000215419
0.000334399
0.000461573
0.000595061
0.000906269
0.0012198
0.00139848
0.00155399
0.0017914
0.0020978
0.00241668
0.00275296
0.00310876
0.00348501
0.0038992
0.00434807
0.00485884
0.00543546
0.00612452
0.0067862
0.0074359
0.00800939
0.00849854
0.00876604
0.00887159
0.00867555
0.00790384
0.00660981
0.0048131
0.00272399
0.00126042
0.000503293
0.000153314
3.06413e-05
)
;
    }
    frontAndBack
    {
        type            empty;
    }
}


// ************************************************************************* //
