/*--------------------------------*- C++ -*----------------------------------*\
  =========                 |
  \\      /  F ield         | OpenFOAM: The Open Source CFD Toolbox
   \\    /   O peration     | Website:  https://openfoam.org
    \\  /    A nd           | Version:  12
     \\/     M anipulation  |
\*---------------------------------------------------------------------------*/
FoamFile
{
    format      ascii;
    class       volScalarField;
    location    "5";
    object      k;
}
// * * * * * * * * * * * * * * * * * * * * * * * * * * * * * * * * * * * * * //

dimensions      [0 2 -2 0 0 0 0];

internalField   nonuniform List<scalar> 
1600
(
1.59572e-06
5.97957e-06
1.209e-05
1.32657e-05
1.26805e-05
1.3319e-05
1.68281e-05
2.61296e-05
3.60702e-05
4.6509e-05
7.08495e-05
9.53382e-05
0.000109285
0.000121429
0.000139976
0.000163921
0.000188839
0.000215122
0.000242926
0.000272333
0.000304702
0.000339786
0.000379704
0.00042477
0.000478622
0.00053033
0.000581103
0.00062592
0.000664146
0.000685052
0.000693301
0.000677989
0.000617688
0.000516578
0.000376199
0.000212939
9.85475e-05
3.93583e-05
1.19916e-05
2.39697e-06
7.73034e-06
3.97813e-05
7.90037e-05
9.05189e-05
9.25127e-05
0.00010113
0.000135904
0.000211143
0.000278393
0.000348143
0.000513968
0.000635031
0.000677361
0.000690132
0.00070137
0.000727452
0.000757274
0.000790939
0.000830084
0.000871056
0.000919186
0.000968324
0.00102298
0.00107598
0.00112799
0.00118583
0.00124644
0.0013085
0.00136289
0.00139354
0.00140407
0.00136641
0.0012599
0.00107886
0.000824109
0.000483915
0.000209218
8.43253e-05
2.88138e-05
4.40021e-06
2.30765e-05
0.000103768
0.000171701
0.000193673
0.000218818
0.000284836
0.00043935
0.000671097
0.000878579
0.000964598
0.000960924
0.000867367
0.000822805
0.000806019
0.0008033
0.000812572
0.000826851
0.000845436
0.000868302
0.000894023
0.000922518
0.000952091
0.000982126
0.00101367
0.00104804
0.0010844
0.00112254
0.00116117
0.00119826
0.00123063
0.00124644
0.00125079
0.00121483
0.0010951
0.000905903
0.00055362
0.000199281
7.09121e-05
2.63007e-05
3.70158e-06
5.36386e-05
0.000214799
0.000312212
0.00036129
0.00045243
0.000640591
0.000904557
0.00106504
0.00109783
0.000993697
0.000914972
0.000839069
0.000809368
0.000799418
0.000797821
0.000807768
0.000820666
0.000837404
0.000855391
0.000874532
0.000893969
0.000913705
0.000935396
0.000957536
0.000981063
0.00100546
0.00103124
0.00105751
0.00108248
0.00110336
0.00111569
0.00112064
0.00111457
0.00107803
0.00100116
0.000814592
0.000330771
8.09212e-05
2.13437e-05
2.76962e-06
0.000103334
0.000378531
0.000510258
0.00060151
0.000763975
0.00100181
0.00113302
0.00115031
0.00104863
0.000908769
0.000828794
0.000793525
0.000781086
0.000778502
0.000784973
0.000801623
0.000818294
0.000838173
0.000857934
0.00087863
0.000898132
0.00091694
0.000934758
0.000952489
0.00097122
0.000991494
0.00101401
0.00103821
0.00106178
0.00108015
0.00108958
0.00109336
0.00108888
0.00106385
0.00102614
0.000936384
0.000682984
0.000190515
3.22049e-05
3.49522e-06
0.000176137
0.000583204
0.000747325
0.000868214
0.00104337
0.00115486
0.0011711
0.00108383
0.000906405
0.000815191
0.000775343
0.000760613
0.00075743
0.000766515
0.000784246
0.000804448
0.000826736
0.000849387
0.000870165
0.000889493
0.000906556
0.000922737
0.000938424
0.000954652
0.000972918
0.000994503
0.00102047
0.00105143
0.00108751
0.00112502
0.00114332
0.00114696
0.00114234
0.0011126
0.00105539
0.000977676
0.000829972
0.000389786
7.21412e-05
7.02967e-06
0.000270634
0.000795642
0.000985438
0.00109179
0.00116935
0.00118437
0.00110929
0.000923718
0.000807621
0.000759769
0.000742329
0.000738417
0.00074712
0.000766453
0.000787157
0.000808825
0.000828524
0.000846878
0.000862311
0.000875035
0.000885619
0.000896018
0.000907831
0.000923299
0.000943377
0.000969487
0.0010027
0.00104338
0.00109061
0.00114243
0.00119779
0.00123115
0.00123686
0.00122469
0.00116777
0.00105356
0.000894603
0.000628159
0.000148277
1.61757e-05
0.00037321
0.00100627
0.00117787
0.00121868
0.00122013
0.00113892
0.000965902
0.000813551
0.000749522
0.00072658
0.000721091
0.000726752
0.00074572
0.000765512
0.000784764
0.000801884
0.00081456
0.000821938
0.000825221
0.000826688
0.000828992
0.000833921
0.000843103
0.000857522
0.000878554
0.000907876
0.000947073
0.00099742
0.00105917
0.00113031
0.00120494
0.00127652
0.00131261
0.00131817
0.00129668
0.00120456
0.00101676
0.000728013
0.000253274
4.00815e-05
0.000462326
0.00117515
0.00130937
0.00130105
0.00119704
0.00103302
0.000840683
0.000749853
0.000715378
0.000706194
0.000706896
0.000723325
0.000742112
0.000758963
0.000769837
0.000773741
0.000772748
0.000766075
0.000760546
0.000757045
0.000755757
0.00075744
0.000765065
0.000778416
0.000799292
0.000829241
0.000870302
0.000924733
0.000994639
0.00108084
0.00118071
0.0012848
0.00136762
0.00140005
0.00139877
0.00133835
0.00117786
0.000895122
0.000461854
0.000107423
0.000529104
0.00129336
0.00140249
0.00131557
0.00113486
0.00091094
0.000769234
0.000711966
0.000693399
0.000690429
0.000699628
0.000717839
0.000730768
0.000735726
0.000733486
0.000723853
0.000713583
0.000701712
0.000692392
0.000686389
0.000683971
0.000683956
0.000691092
0.000703785
0.000723862
0.000752616
0.000792167
0.000845259
0.000915297
0.0010057
0.00111817
0.00124923
0.00138483
0.00147487
0.00149693
0.00146838
0.00132112
0.00101864
0.000568686
0.000193527
0.000575547
0.00137024
0.00145663
0.00129785
0.00104229
0.000824528
0.000724425
0.000687021
0.000677346
0.000678539
0.000692719
0.000702463
0.000704485
0.00069766
0.000685425
0.000669711
0.000654683
0.000640753
0.000630149
0.000623824
0.000621342
0.000621447
0.000628587
0.000641009
0.000660215
0.000687321
0.000724263
0.00077382
0.000839945
0.000927684
0.00104214
0.00118536
0.00135007
0.00150704
0.0015833
0.0015904
0.00148769
0.00119592
0.000710688
0.000280095
0.000602974
0.00140536
0.00146691
0.0012554
0.000953766
0.000769798
0.000694483
0.000668809
0.000663599
0.000668624
0.000676231
0.00067737
0.000670006
0.000655132
0.000637148
0.000618515
0.000601857
0.000587807
0.000577437
0.000571685
0.000569528
0.000570294
0.00057738
0.000589515
0.00060783
0.000633329
0.00066767
0.000713371
0.000774315
0.000856231
0.000966682
0.00111332
0.00129847
0.00150822
0.00165295
0.00168976
0.00162353
0.00133864
0.000830632
0.000351762
0.000602543
0.00140406
0.00145486
0.00119643
0.000882735
0.000731395
0.000671899
0.00065297
0.000649728
0.00065327
0.000654642
0.00064829
0.000633459
0.000613755
0.000593093
0.000573667
0.000557065
0.000543718
0.000534053
0.000528872
0.000526993
0.000528117
0.000534847
0.000546439
0.000563785
0.00058783
0.000619998
0.000662444
0.000718588
0.00079387
0.000896478
0.00103698
0.00122452
0.00145644
0.00168561
0.00178613
0.00176815
0.00150436
0.000952848
0.000419438
0.000595105
0.00138967
0.00142443
0.00113158
0.000833106
0.00070245
0.000653026
0.000637939
0.000635275
0.000635468
0.000631154
0.00061826
0.000598695
0.000576556
0.000555094
0.000535974
0.000520063
0.000507528
0.000498458
0.000493494
0.000491675
0.000492653
0.000498698
0.000509455
0.000525714
0.000548406
0.000578814
0.000618805
0.000671328
0.000741292
0.000836834
0.000970318
0.00115662
0.00140371
0.00169136
0.00186664
0.00188814
0.00165437
0.00107489
0.000482826
0.000577115
0.00135558
0.00137602
0.00107282
0.000796103
0.000679443
0.000636652
0.000623581
0.0006199
0.000616985
0.000607515
0.000590025
0.000567774
0.0005447
0.000523381
0.000504952
0.000489798
0.000477879
0.000469124
0.000464001
0.000462008
0.000462465
0.000467565
0.000477253
0.000492294
0.000513637
0.000542503
0.000580547
0.000630266
0.00069583
0.000784552
0.00090886
0.00108705
0.00133729
0.00165646
0.00192921
0.00200474
0.00181093
0.00119765
0.000545103
0.000545824
0.00130818
0.00132133
0.00102309
0.000767215
0.000660456
0.000622023
0.00060987
0.000605184
0.000599051
0.000585546
0.000565084
0.000541476
0.00051826
0.000497434
0.000479707
0.000465156
0.000453612
0.000444933
0.000439372
0.000436959
0.000436783
0.000440771
0.000449237
0.000462949
0.000482906
0.000510333
0.000546784
0.000594451
0.000656883
0.000740467
0.000856913
0.00102581
0.00127207
0.00160641
0.0019587
0.00210213
0.00195866
0.00132361
0.000606194
0.000508906
0.00125433
0.00126399
0.000981584
0.000744319
0.000644584
0.000609057
0.000597269
0.000591621
0.000582685
0.000566284
0.000544025
0.000519828
0.000496808
0.000476513
0.00045935
0.000445214
0.000433861
0.000425121
0.000418974
0.00041589
0.000415173
0.000417991
0.000425161
0.000437471
0.000455979
0.000481963
0.000516964
0.000562981
0.000623045
0.000702576
0.000812105
0.000971341
0.00121056
0.00155435
0.00196867
0.00219229
0.00210372
0.00144962
0.000667148
0.000465391
0.00120127
0.00120855
0.000947928
0.000726545
0.000631404
0.00059773
0.000586237
0.000579584
0.000568479
0.000550148
0.000526879
0.000502497
0.000479757
0.000459895
0.000443129
0.000429244
0.000417948
0.000409036
0.000402444
0.000398594
0.000397299
0.000399026
0.000404913
0.000415796
0.000432806
0.000457306
0.000490897
0.000535514
0.000593827
0.000670379
0.000774242
0.000923956
0.00115279
0.00150024
0.00195873
0.00226849
0.00224258
0.00158352
0.000728188
0.000421824
0.00114688
0.00115594
0.000920921
0.000713084
0.000620529
0.000587908
0.000576692
0.000569198
0.00055662
0.00053714
0.000513388
0.00048902
0.00046653
0.000446966
0.000430444
0.000416693
0.00040539
0.000396305
0.000389361
0.000384816
0.000382928
0.00038371
0.000388398
0.000397892
0.000413392
0.000436362
0.000468517
0.000511847
0.000568817
0.000643261
0.000742786
0.000884008
0.00110044
0.00144154
0.00192619
0.00233831
0.00237559
0.00171843
0.000789057
0.000372337
0.0010995
0.00110892
0.000899897
0.000704159
0.000612172
0.000579668
0.000568544
0.000560449
0.000547036
0.000527033
0.000503165
0.000478913
0.000456611
0.000437222
0.000420825
0.00040713
0.000395796
0.00038658
0.000379387
0.000374317
0.000371845
0.000371864
0.000375496
0.000383701
0.00039774
0.000419166
0.000449841
0.000491914
0.000547798
0.000620801
0.000717161
0.000851317
0.00105573
0.00138697
0.00188641
0.00239237
0.00250505
0.00186172
0.00085036
0.000332662
0.00104804
0.00106707
0.000883685
0.00069894
0.000605903
0.000572479
0.00056136
0.00055304
0.000539419
0.000519441
0.000495773
0.000471742
0.000449592
0.000430279
0.000413909
0.000400211
0.000388845
0.000379551
0.000372211
0.00036687
0.00036385
0.000363316
0.000366057
0.000373117
0.000385811
0.000405746
0.000434924
0.000475736
0.000530694
0.000602767
0.000696938
0.000825255
0.00101791
0.00133596
0.00184258
0.00243111
0.00263137
0.00200812
0.000911204
0.000299176
0.000995215
0.00102788
0.000874265
0.000699464
0.00060298
0.000566974
0.000555137
0.000546759
0.000533426
0.000513952
0.000490798
0.000467091
0.000445062
0.000425759
0.000409366
0.000395652
0.000384284
0.000374984
0.000367603
0.000362158
0.000358858
0.000358025
0.000360144
0.000366246
0.000377713
0.000396162
0.000423827
0.000463381
0.000517522
0.000589068
0.000681896
0.000805639
0.000987449
0.0012907
0.00179848
0.00245221
0.0027546
0.00216262
0.000972245
0.000269572
0.00094296
0.000991975
0.000868852
0.000702546
0.000603752
0.00056282
0.000549488
0.000541152
0.000528569
0.000510065
0.000487715
0.0004645
0.000442734
0.000423535
0.000407143
0.000393417
0.000382061
0.000372793
0.000365439
0.000359986
0.000356625
0.000355816
0.000357668
0.000363145
0.000373819
0.000391139
0.000417388
0.000455473
0.000508641
0.000579981
0.000672446
0.000792422
0.000963814
0.00125067
0.00175631
0.00246139
0.00287492
0.00232196
0.00103237
0.000242702
0.000892556
0.000959982
0.000866997
0.000709747
0.000606993
0.000561181
0.000544937
0.000536204
0.000524519
0.000507323
0.000486183
0.000463997
0.000442773
0.000423679
0.000407277
0.000393518
0.000382146
0.000372893
0.000365579
0.000360178
0.00035686
0.000356066
0.000357646
0.000362639
0.000372791
0.000389445
0.000414909
0.000451939
0.000504426
0.000575706
0.000668197
0.000786049
0.000947014
0.00121592
0.00171275
0.00246362
0.00299097
0.00248822
0.00109191
0.0002175
0.000843086
0.000931323
0.00086641
0.000721632
0.000614283
0.000562174
0.000541129
0.000531548
0.000520795
0.000505227
0.000485667
0.000464488
0.000443733
0.0004249
0.000408594
0.000394889
0.000383608
0.000374518
0.000367453
0.000362379
0.000359447
0.000359006
0.000360592
0.00036534
0.000374984
0.000390721
0.000414958
0.000451214
0.000503278
0.000574559
0.000667201
0.000784098
0.000938287
0.0011871
0.00166848
0.0024553
0.00310205
0.00265991
0.00114976
0.000193677
0.000795455
0.000905826
0.000864562
0.000739891
0.000627401
0.000565964
0.000540202
0.000527653
0.000517358
0.000503468
0.000485703
0.000465828
0.000446027
0.000427742
0.000411721
0.000398214
0.000387161
0.000378387
0.000371728
0.000367115
0.000364669
0.000364706
0.000366512
0.000371427
0.000381033
0.000396419
0.000420007
0.000455289
0.000506603
0.000577966
0.000671285
0.00078697
0.00093513
0.00116446
0.00162446
0.00243635
0.00320718
0.00283669
0.00120592
0.000170407
0.0007465
0.000882592
0.000860508
0.000761228
0.000646738
0.000574686
0.000541747
0.000525617
0.000514158
0.000501527
0.0004858
0.000467789
0.000449365
0.000432006
0.000416605
0.000403556
0.000392919
0.000384591
0.000378435
0.000374374
0.00037263
0.000373099
0.000375412
0.000380859
0.000390694
0.000406069
0.000429376
0.000464185
0.000515116
0.00058659
0.000680541
0.00079571
0.000936261
0.00114808
0.00158215
0.00240863
0.00330315
0.0030173
0.00125946
0.000147874
0.000698103
0.000859665
0.000853115
0.000785171
0.000670815
0.00059018
0.000547018
0.000526526
0.000513173
0.000500447
0.000486098
0.000469881
0.000453117
0.00043707
0.000422667
0.00041041
0.00040047
0.000392826
0.000387377
0.000384063
0.000383266
0.000384214
0.000387205
0.00039348
0.000403784
0.000419444
0.000442808
0.000477454
0.000528137
0.000599583
0.000693904
0.000808766
0.000944173
0.00113712
0.00154237
0.00237636
0.00338969
0.00319722
0.00131021
0.00012525
0.000644023
0.000836681
0.000844059
0.000802861
0.000702665
0.000614084
0.00055881
0.000530802
0.000514505
0.000501063
0.000487101
0.000472237
0.000457107
0.0004426
0.000429526
0.000418406
0.000409481
0.000402798
0.000398281
0.000396011
0.0003962
0.000397789
0.000401724
0.00040895
0.000419949
0.000436169
0.000459924
0.000494744
0.000545358
0.000616595
0.000710714
0.000824677
0.000954822
0.00112967
0.00150332
0.00232852
0.00346861
0.00337428
0.00135768
0.000104976
0.000593596
0.000811945
0.000834882
0.000811373
0.000736264
0.000646344
0.000581325
0.000541847
0.000519816
0.000504108
0.000489807
0.000475546
0.000461644
0.000448587
0.000436956
0.000427192
0.000419529
0.000414049
0.00041065
0.000409833
0.000410685
0.000413241
0.000418488
0.000426666
0.000438551
0.000455586
0.000480044
0.000515348
0.000566017
0.00063674
0.00072983
0.000842022
0.000967054
0.00112463
0.00146513
0.00227101
0.00353351
0.00353981
0.00140182
8.77568e-05
0.000538547
0.000790208
0.000825779
0.00081435
0.000767775
0.000684849
0.000614699
0.000564786
0.000533254
0.000512682
0.000496387
0.000481638
0.000468036
0.000455838
0.000445341
0.000436814
0.000430418
0.000426147
0.000424135
0.000424507
0.000426197
0.000430006
0.000436455
0.000445711
0.000458652
0.000476728
0.000502143
0.000538144
0.000588845
0.000658558
0.000749483
0.000858532
0.000978005
0.00111948
0.00142731
0.00220515
0.00358209
0.00368885
0.00144304
7.31879e-05
0.00047687
0.000774778
0.000818401
0.000814275
0.000788705
0.000726926
0.000659183
0.000603529
0.00056185
0.000532339
0.000511211
0.00049408
0.000479227
0.000466662
0.000456384
0.000448417
0.000442846
0.000439338
0.000438733
0.000439695
0.000442276
0.000447376
0.000454864
0.000465207
0.000479274
0.000498511
0.000524983
0.000561675
0.000612107
0.000680052
0.00076747
0.000871908
0.000985796
0.00111481
0.00139756
0.00214093
0.00360697
0.00380526
0.00148193
6.07482e-05
0.000410515
0.000752247
0.000813707
0.000814929
0.000804142
0.000769959
0.000711666
0.000656881
0.000610169
0.000572458
0.000542575
0.000519703
0.000501339
0.000486294
0.000474443
0.000465556
0.000459633
0.000455928
0.000455739
0.000456919
0.000459943
0.000465652
0.000473858
0.000485065
0.000500089
0.000520339
0.00054764
0.000584638
0.000634122
0.00069932
0.000781938
0.000880629
0.000989778
0.00111255
0.00138437
0.00210522
0.00361853
0.00386233
0.00152092
5.34633e-05
0.000353395
0.000704804
0.000801629
0.00081654
0.000816204
0.00080533
0.00077467
0.00072784
0.000681792
0.000639813
0.000603103
0.000571934
0.000546324
0.00052569
0.000509443
0.000497107
0.000488477
0.000482849
0.00048058
0.000481164
0.000483426
0.000488359
0.000496325
0.000507596
0.000522917
0.000543572
0.000571024
0.000607563
0.000655253
0.000716962
0.000794416
0.000887929
0.000996286
0.00111924
0.00138473
0.00209303
0.00362942
0.00388113
0.00155849
5.40535e-05
0.000331348
0.000637129
0.000773156
0.000818025
0.000835821
0.0008424
0.000835185
0.000813927
0.000777075
0.000737098
0.00069779
0.0006612
0.000628615
0.000600591
0.000577237
0.000558362
0.000543773
0.000533003
0.000525919
0.000522058
0.000522382
0.000524733
0.000530353
0.000540427
0.000555064
0.000575311
0.000602299
0.00063802
0.000684138
0.000743475
0.000818716
0.000912333
0.00103093
0.00117636
0.00146983
0.00216672
0.00366426
0.00386219
0.00157391
7.14026e-05
0.000337614
0.000569262
0.000730047
0.000824814
0.000875615
0.000904923
0.000920556
0.000917678
0.000904041
0.00087511
0.000838624
0.000800004
0.000761824
0.000725927
0.000693536
0.000665371
0.000641728
0.000622719
0.000608281
0.000598396
0.000593382
0.000594066
0.000597552
0.00060557
0.000619899
0.000640652
0.000669228
0.00070729
0.000757157
0.000821781
0.000907037
0.00101702
0.00116958
0.00137272
0.00171985
0.00241508
0.00374737
0.00376448
0.00157728
0.00010445
0.000391494
0.000579474
0.000749407
0.000875377
0.00097038
0.00103235
0.00106904
0.00108127
0.00107698
0.00106178
0.00103062
0.000991245
0.000949118
0.000906416
0.00086771
0.000834091
0.000806127
0.000783634
0.000767764
0.000756677
0.000752635
0.000754791
0.000761702
0.000776055
0.000799508
0.000831499
0.000874498
0.000930606
0.00100471
0.00109981
0.00122647
0.00138868
0.00161529
0.00190367
0.00235127
0.00298322
0.0039059
0.00367905
0.00154242
0.000168066
0.000537759
0.000715368
0.000916443
0.0010837
0.00122152
0.00131595
0.00137319
0.00139784
0.00139525
0.00138383
0.00135946
0.00132657
0.0012926
0.0012602
0.00123138
0.00120681
0.00118976
0.00118017
0.00118182
0.00118911
0.00120607
0.00123387
0.00127453
0.00132519
0.00139184
0.00147193
0.00157166
0.00169115
0.00183138
0.0020056
0.00221513
0.0024831
0.00280115
0.00319415
0.00367313
0.00409364
0.00425583
0.00358141
0.00145978
0.000301957
0.00091215
0.0012991
0.00167209
0.00190966
0.00207481
0.00217932
0.00224124
0.00227278
0.00227487
0.00227149
0.00226672
0.00225794
0.00225869
0.00226404
0.00227785
0.00230062
0.00233725
0.00238172
0.00244354
0.00251455
0.00260454
0.002704
0.00282492
0.00295703
0.00311097
0.0032806
0.00346883
0.00368359
0.00390498
0.00417653
0.00441717
0.00476113
0.00496836
0.00536579
0.00536347
0.00518241
0.00451553
0.0031592
0.00128959
0.000203855
0.000326105
0.000433527
0.000554593
0.000663709
0.000761206
0.000844286
0.000910361
0.000963365
0.000999432
0.00102335
0.0010375
0.00104448
0.00104411
0.00104194
0.00103716
0.00103044
0.00102353
0.00101688
0.00101127
0.00100718
0.00100499
0.00100563
0.00100791
0.00101385
0.00102064
0.0010354
0.0010468
0.00107121
0.00108712
0.00112128
0.00114119
0.00118492
0.00121553
0.00128441
0.00132348
0.00139122
0.0013906
0.00134167
0.00112018
)
;

boundaryField
{
    movingWall
    {
        type            kqRWallFunction;
        value           nonuniform List<scalar> 
40
(
0.000203855
0.000326105
0.000433527
0.000554593
0.000663709
0.000761206
0.000844286
0.000910361
0.000963365
0.000999432
0.00102335
0.0010375
0.00104448
0.00104411
0.00104194
0.00103716
0.00103044
0.00102353
0.00101688
0.00101127
0.00100718
0.00100499
0.00100563
0.00100791
0.00101385
0.00102064
0.0010354
0.0010468
0.00107121
0.00108712
0.00112128
0.00114119
0.00118492
0.00121553
0.00128441
0.00132348
0.00139122
0.0013906
0.00134167
0.00112018
)
;
    }
    fixedWalls
    {
        type            kqRWallFunction;
        value           nonuniform List<scalar> 
120
(
1.59572e-06
7.73034e-06
2.30765e-05
5.36386e-05
0.000103334
0.000176137
0.000270634
0.00037321
0.000462326
0.000529104
0.000575547
0.000602974
0.000602543
0.000595105
0.000577115
0.000545824
0.000508906
0.000465391
0.000421824
0.000372337
0.000332662
0.000299176
0.000269572
0.000242702
0.0002175
0.000193677
0.000170407
0.000147874
0.00012525
0.000104976
8.77568e-05
7.31879e-05
6.07482e-05
5.34633e-05
5.40535e-05
7.14026e-05
0.00010445
0.000168066
0.000301957
0.000203855
2.39697e-06
4.40021e-06
3.70158e-06
2.76962e-06
3.49522e-06
7.02967e-06
1.61757e-05
4.00815e-05
0.000107423
0.000193527
0.000280095
0.000351762
0.000419438
0.000482826
0.000545103
0.000606194
0.000667148
0.000728188
0.000789057
0.00085036
0.000911204
0.000972245
0.00103237
0.00109191
0.00114976
0.00120592
0.00125946
0.00131021
0.00135768
0.00140182
0.00144304
0.00148193
0.00152092
0.00155849
0.00157391
0.00157728
0.00154242
0.00145978
0.00128959
0.00112018
1.59572e-06
5.97957e-06
1.209e-05
1.32657e-05
1.26805e-05
1.3319e-05
1.68281e-05
2.61296e-05
3.60702e-05
4.6509e-05
7.08495e-05
9.53382e-05
0.000109285
0.000121429
0.000139976
0.000163921
0.000188839
0.000215122
0.000242926
0.000272333
0.000304702
0.000339786
0.000379704
0.00042477
0.000478622
0.00053033
0.000581103
0.00062592
0.000664146
0.000685052
0.000693301
0.000677989
0.000617688
0.000516578
0.000376199
0.000212939
9.85475e-05
3.93583e-05
1.19916e-05
2.39697e-06
)
;
    }
    frontAndBack
    {
        type            empty;
    }
}


// ************************************************************************* //
