/*--------------------------------*- C++ -*----------------------------------*\
  =========                 |
  \\      /  F ield         | OpenFOAM: The Open Source CFD Toolbox
   \\    /   O peration     | Website:  https://openfoam.org
    \\  /    A nd           | Version:  12
     \\/     M anipulation  |
\*---------------------------------------------------------------------------*/
FoamFile
{
    format      ascii;
    class       volScalarField;
    location    "5";
    object      nut;
}
// * * * * * * * * * * * * * * * * * * * * * * * * * * * * * * * * * * * * * //

dimensions      [0 2 -1 0 0 0 0];

internalField   nonuniform List<scalar> 
1600
(
1.12309e-08
4.20697e-08
8.50444e-08
9.32874e-08
8.916e-08
9.3638e-08
1.18312e-07
1.83756e-07
2.53687e-07
3.27155e-07
4.98493e-07
6.70638e-07
7.68614e-07
8.53966e-07
9.84365e-07
1.15279e-06
1.32802e-06
1.5129e-06
1.70845e-06
1.91532e-06
2.14298e-06
2.38977e-06
2.67054e-06
2.98754e-06
3.36632e-06
3.73e-06
4.0871e-06
4.40231e-06
4.67116e-06
4.81821e-06
4.87623e-06
4.7686e-06
4.34453e-06
3.63351e-06
2.64639e-06
1.49812e-06
6.93456e-07
2.7701e-07
8.44132e-08
1.68757e-08
5.44065e-08
1.1365e-06
3.4397e-06
4.4614e-06
4.52871e-06
4.40557e-06
4.80373e-06
5.93859e-06
6.055e-06
6.11494e-06
7.56235e-06
8.7436e-06
9.44281e-06
1.011e-05
1.10533e-05
1.22943e-05
1.35937e-05
1.49487e-05
1.64662e-05
1.77699e-05
1.91946e-05
2.04277e-05
2.17623e-05
2.28379e-05
2.36196e-05
2.43467e-05
2.50037e-05
2.54858e-05
2.56914e-05
2.52999e-05
2.50106e-05
2.35804e-05
2.14631e-05
1.8233e-05
1.45699e-05
8.95758e-06
4.17678e-06
1.63159e-06
5.50361e-07
3.0966e-08
1.62421e-07
3.04482e-06
7.73687e-06
9.74492e-06
1.05729e-05
1.10509e-05
1.31001e-05
1.57759e-05
1.63712e-05
1.65328e-05
1.61272e-05
1.51393e-05
1.49045e-05
1.58621e-05
1.74015e-05
1.90944e-05
2.10173e-05
2.28919e-05
2.46798e-05
2.6389e-05
2.8128e-05
2.94755e-05
3.03987e-05
3.09766e-05
3.14005e-05
3.16505e-05
3.16945e-05
3.14754e-05
3.09385e-05
2.9944e-05
2.80504e-05
2.61613e-05
2.38636e-05
1.96816e-05
1.554e-05
8.75575e-06
3.61137e-06
1.74051e-06
7.04124e-07
2.60452e-08
3.77503e-07
6.5615e-06
1.33431e-05
1.58429e-05
1.70441e-05
1.855e-05
2.03799e-05
2.06747e-05
2.03836e-05
1.79564e-05
1.70526e-05
1.81641e-05
1.98115e-05
2.25773e-05
2.44639e-05
2.69904e-05
2.90147e-05
3.08365e-05
3.24036e-05
3.37986e-05
3.45932e-05
3.52064e-05
3.5605e-05
3.58084e-05
3.5816e-05
3.56393e-05
3.52539e-05
3.46161e-05
3.36366e-05
3.22383e-05
3.03081e-05
2.80171e-05
2.51643e-05
2.14118e-05
1.78441e-05
1.28852e-05
4.24384e-06
1.46045e-06
5.08873e-07
1.94795e-08
7.27171e-07
1.18065e-05
1.95036e-05
2.11918e-05
2.19912e-05
2.34602e-05
2.34698e-05
2.29642e-05
2.04091e-05
1.91755e-05
2.12767e-05
2.34047e-05
2.62474e-05
2.88946e-05
3.10348e-05
3.33333e-05
3.50841e-05
3.68154e-05
3.78133e-05
3.87916e-05
3.93405e-05
3.97866e-05
3.99386e-05
3.99403e-05
3.9762e-05
3.94223e-05
3.88752e-05
3.80798e-05
3.69082e-05
3.51876e-05
3.29043e-05
3.04493e-05
2.7728e-05
2.40818e-05
1.98218e-05
1.56641e-05
9.34808e-06
2.5157e-06
5.67828e-07
2.45757e-08
1.23937e-06
1.7551e-05
2.49943e-05
2.57214e-05
2.60454e-05
2.56957e-05
2.51124e-05
2.26665e-05
2.09836e-05
2.33827e-05
2.60686e-05
2.89736e-05
3.15457e-05
3.38243e-05
3.6026e-05
3.80253e-05
3.95628e-05
4.09089e-05
4.18418e-05
4.2641e-05
4.30864e-05
4.33873e-05
4.3436e-05
4.33145e-05
4.30463e-05
4.26826e-05
4.22272e-05
4.17007e-05
4.1111e-05
4.02609e-05
3.79178e-05
3.48466e-05
3.17903e-05
2.79463e-05
2.30693e-05
1.79345e-05
1.24561e-05
4.00785e-06
9.18576e-07
4.94226e-08
1.90411e-06
2.21084e-05
2.94574e-05
2.90892e-05
2.78586e-05
2.71247e-05
2.47224e-05
2.25014e-05
2.47839e-05
2.78707e-05
3.08472e-05
3.32833e-05
3.54847e-05
3.78373e-05
3.99564e-05
4.16455e-05
4.30368e-05
4.42959e-05
4.52388e-05
4.58938e-05
4.6197e-05
4.62722e-05
4.6149e-05
4.59567e-05
4.56619e-05
4.53e-05
4.4881e-05
4.44003e-05
4.38131e-05
4.31054e-05
4.24534e-05
4.046e-05
3.72982e-05
3.40221e-05
2.88719e-05
2.16442e-05
1.48695e-05
7.63342e-06
1.51694e-06
1.13734e-07
2.62566e-06
2.61224e-05
3.23813e-05
3.09093e-05
2.97099e-05
2.68358e-05
2.41884e-05
2.5653e-05
2.8787e-05
3.19399e-05
3.4432e-05
3.65025e-05
3.90388e-05
4.12871e-05
4.33692e-05
4.5194e-05
4.66425e-05
4.76959e-05
4.82426e-05
4.84816e-05
4.86034e-05
4.85618e-05
4.84291e-05
4.81922e-05
4.78382e-05
4.74197e-05
4.69652e-05
4.65032e-05
4.60244e-05
4.54544e-05
4.46284e-05
4.36081e-05
4.0984e-05
3.7556e-05
3.46242e-05
2.84032e-05
1.92566e-05
9.73393e-06
2.04675e-06
2.81842e-07
3.25226e-06
2.8742e-05
3.41067e-05
3.29896e-05
2.96303e-05
2.63981e-05
2.58273e-05
2.90392e-05
3.23597e-05
3.51378e-05
3.71297e-05
3.98245e-05
4.239e-05
4.47988e-05
4.67822e-05
4.82183e-05
4.93271e-05
4.98268e-05
5.0341e-05
5.07169e-05
5.08862e-05
5.10991e-05
5.09742e-05
5.07112e-05
5.0265e-05
4.96954e-05
4.90563e-05
4.84213e-05
4.78553e-05
4.7377e-05
4.68985e-05
4.61541e-05
4.42783e-05
4.06162e-05
3.75254e-05
3.31512e-05
2.48479e-05
1.413e-05
4.40622e-06
7.55458e-07
3.72171e-06
3.03569e-05
3.60297e-05
3.38391e-05
2.9412e-05
2.66145e-05
2.87673e-05
3.21795e-05
3.52572e-05
3.75942e-05
4.00243e-05
4.29857e-05
4.55354e-05
4.75585e-05
4.91629e-05
5.01602e-05
5.12533e-05
5.20453e-05
5.28698e-05
5.35906e-05
5.4017e-05
5.423e-05
5.43549e-05
5.40408e-05
5.34901e-05
5.26802e-05
5.16938e-05
5.06303e-05
4.96208e-05
4.87896e-05
4.81945e-05
4.77389e-05
4.70793e-05
4.43554e-05
4.03966e-05
3.71766e-05
2.96243e-05
1.75594e-05
5.90623e-06
1.36102e-06
4.0483e-06
3.14532e-05
3.74208e-05
3.39942e-05
2.91752e-05
2.84501e-05
3.14691e-05
3.48301e-05
3.76821e-05
3.99248e-05
4.29116e-05
4.55119e-05
4.77418e-05
4.94528e-05
5.09493e-05
5.22229e-05
5.35919e-05
5.48382e-05
5.60719e-05
5.72134e-05
5.79024e-05
5.82707e-05
5.86358e-05
5.83245e-05
5.76838e-05
5.66446e-05
5.52866e-05
5.3714e-05
5.20929e-05
5.06281e-05
4.95037e-05
4.87674e-05
4.81762e-05
4.68534e-05
4.29912e-05
4.02159e-05
3.44764e-05
2.25053e-05
8.46037e-06
1.96987e-06
4.24092e-06
3.18787e-05
3.81693e-05
3.422e-05
2.95123e-05
3.06184e-05
3.38508e-05
3.71058e-05
3.97924e-05
4.22695e-05
4.49219e-05
4.73532e-05
4.94575e-05
5.1191e-05
5.28975e-05
5.46065e-05
5.64248e-05
5.81934e-05
5.98818e-05
6.14355e-05
6.23661e-05
6.29643e-05
6.35005e-05
6.3229e-05
6.25228e-05
6.13106e-05
5.96431e-05
5.76033e-05
5.53515e-05
5.31398e-05
5.12868e-05
5.00735e-05
4.95591e-05
4.93667e-05
4.59992e-05
4.22271e-05
3.78083e-05
2.61679e-05
1.07528e-05
2.47385e-06
4.23782e-06
3.18376e-05
3.84333e-05
3.42982e-05
3.0467e-05
3.25248e-05
3.58441e-05
3.89746e-05
4.15026e-05
4.39545e-05
4.65221e-05
4.89332e-05
5.10148e-05
5.29861e-05
5.50846e-05
5.73103e-05
5.96408e-05
6.19164e-05
6.40248e-05
6.59175e-05
6.70447e-05
6.78195e-05
6.84492e-05
6.82132e-05
6.74644e-05
6.61534e-05
6.42982e-05
6.19375e-05
5.91758e-05
5.62296e-05
5.34508e-05
5.12586e-05
4.99339e-05
4.93313e-05
4.77914e-05
4.4026e-05
4.09331e-05
3.01819e-05
1.32721e-05
2.94978e-06
4.18542e-06
3.15875e-05
3.87074e-05
3.42938e-05
3.18489e-05
3.41326e-05
3.74382e-05
4.04702e-05
4.28924e-05
4.53217e-05
4.7914e-05
5.03064e-05
5.25464e-05
5.48808e-05
5.74473e-05
6.01929e-05
6.30077e-05
6.57101e-05
6.81441e-05
7.02631e-05
7.15242e-05
7.23521e-05
7.29897e-05
7.27532e-05
7.19689e-05
7.06241e-05
6.87175e-05
6.62434e-05
6.32313e-05
5.9818e-05
5.63324e-05
5.33091e-05
5.13061e-05
5.04814e-05
5.00867e-05
4.58672e-05
4.28933e-05
3.32868e-05
1.56041e-05
3.39553e-06
4.05876e-06
3.10024e-05
3.85228e-05
3.45097e-05
3.29828e-05
3.54387e-05
3.87272e-05
4.16526e-05
4.3944e-05
4.6478e-05
4.90881e-05
5.15668e-05
5.407e-05
5.68099e-05
5.98373e-05
6.30421e-05
6.62528e-05
6.92652e-05
7.19028e-05
7.41184e-05
7.54399e-05
7.61922e-05
7.67446e-05
7.64547e-05
7.56243e-05
7.42846e-05
7.24325e-05
7.00254e-05
6.7007e-05
6.33812e-05
5.93425e-05
5.54035e-05
5.2347e-05
5.08305e-05
5.07652e-05
4.79452e-05
4.45363e-05
3.63148e-05
1.7863e-05
3.83347e-06
3.8386e-06
3.0183e-05
3.81385e-05
3.47989e-05
3.38776e-05
3.64602e-05
3.97277e-05
4.25227e-05
4.48339e-05
4.74426e-05
5.01004e-05
5.27324e-05
5.55309e-05
5.86518e-05
6.20736e-05
6.56358e-05
6.91246e-05
7.23199e-05
7.50396e-05
7.72208e-05
7.85037e-05
7.91109e-05
7.94847e-05
7.90876e-05
7.81932e-05
7.68786e-05
7.51569e-05
7.297e-05
7.01967e-05
6.67109e-05
6.25264e-05
5.80076e-05
5.39753e-05
5.13829e-05
5.05279e-05
4.92149e-05
4.54393e-05
3.86081e-05
2.00679e-05
4.26305e-06
3.57891e-06
2.91876e-05
3.75685e-05
3.50575e-05
3.45607e-05
3.72299e-05
4.04785e-05
4.31708e-05
4.55751e-05
4.82396e-05
5.09679e-05
5.37722e-05
5.68404e-05
6.02708e-05
6.39849e-05
6.77832e-05
7.14258e-05
7.46846e-05
7.7382e-05
7.94074e-05
8.05329e-05
8.0997e-05
8.11212e-05
8.05754e-05
7.96019e-05
7.8319e-05
7.67667e-05
7.4889e-05
7.25238e-05
6.94312e-05
6.54282e-05
6.06564e-05
5.58819e-05
5.23735e-05
5.08907e-05
5.03521e-05
4.63954e-05
4.05492e-05
2.21264e-05
4.69167e-06
3.27283e-06
2.81579e-05
3.68766e-05
3.52521e-05
3.505e-05
3.77529e-05
4.10078e-05
4.36776e-05
4.61727e-05
4.88789e-05
5.16784e-05
5.46325e-05
5.79053e-05
6.15457e-05
6.54335e-05
6.9343e-05
7.30191e-05
7.62306e-05
7.88037e-05
8.06337e-05
8.15357e-05
8.18231e-05
8.16801e-05
8.09694e-05
7.99129e-05
7.86661e-05
7.73e-05
7.57754e-05
7.39202e-05
7.14133e-05
6.78907e-05
6.32061e-05
5.78905e-05
5.33967e-05
5.12517e-05
5.11503e-05
4.71969e-05
4.20692e-05
2.41655e-05
5.12089e-06
2.96643e-06
2.70382e-05
3.60557e-05
3.53369e-05
3.53768e-05
3.80974e-05
4.13434e-05
4.40491e-05
4.66208e-05
4.93551e-05
5.22066e-05
5.52609e-05
5.86519e-05
6.23895e-05
6.63292e-05
7.02316e-05
7.38351e-05
7.69106e-05
7.92939e-05
8.08977e-05
8.1568e-05
8.16607e-05
8.12769e-05
8.04132e-05
7.92827e-05
7.80801e-05
7.69011e-05
7.57324e-05
7.44243e-05
7.26081e-05
6.97876e-05
6.5536e-05
6.00226e-05
5.46175e-05
5.14197e-05
5.11171e-05
4.81726e-05
4.33244e-05
2.60131e-05
5.5489e-06
2.61838e-06
2.60959e-05
3.51827e-05
3.53372e-05
3.55659e-05
3.81884e-05
4.15103e-05
4.42906e-05
4.69195e-05
4.96614e-05
5.25288e-05
5.56121e-05
5.90191e-05
6.27439e-05
6.66276e-05
7.04216e-05
7.38643e-05
7.67374e-05
7.8894e-05
8.02653e-05
8.07393e-05
8.06342e-05
8.00331e-05
7.90412e-05
7.78978e-05
7.67789e-05
7.57778e-05
7.49359e-05
7.41648e-05
7.30632e-05
7.10603e-05
6.74926e-05
6.21181e-05
5.60356e-05
5.17622e-05
5.0881e-05
4.90141e-05
4.44162e-05
2.78224e-05
5.97995e-06
2.33933e-06
2.47735e-05
3.4241e-05
3.51886e-05
3.56203e-05
3.82718e-05
4.14663e-05
4.43601e-05
4.70438e-05
4.97764e-05
5.26165e-05
5.56689e-05
5.90359e-05
6.26604e-05
6.63733e-05
6.99405e-05
7.31279e-05
7.57469e-05
7.76742e-05
7.88447e-05
7.92141e-05
7.89338e-05
7.81073e-05
7.69797e-05
7.57817e-05
7.4734e-05
7.39731e-05
7.35601e-05
7.33225e-05
7.29016e-05
7.17492e-05
6.90274e-05
6.40894e-05
5.75825e-05
5.22208e-05
5.04352e-05
4.96757e-05
4.5416e-05
2.94564e-05
6.40777e-06
2.10383e-06
2.33067e-05
3.29097e-05
3.52019e-05
3.55899e-05
3.79097e-05
4.13506e-05
4.42835e-05
4.70067e-05
4.97089e-05
5.24968e-05
5.54594e-05
5.85559e-05
6.1858e-05
6.52489e-05
6.85305e-05
7.14935e-05
7.39522e-05
7.57538e-05
7.68253e-05
7.71585e-05
7.68535e-05
7.60439e-05
7.49382e-05
7.36723e-05
7.25511e-05
7.183e-05
7.16259e-05
7.18473e-05
7.21687e-05
7.19364e-05
7.01185e-05
6.58322e-05
5.91862e-05
5.29138e-05
5.02473e-05
4.9954e-05
4.63591e-05
3.1023e-05
6.83698e-06
1.89565e-06
2.17152e-05
3.1352e-05
3.49053e-05
3.5503e-05
3.77256e-05
4.08245e-05
4.4007e-05
4.67536e-05
4.94262e-05
5.20881e-05
5.47581e-05
5.77167e-05
6.08574e-05
6.40618e-05
6.71398e-05
6.99002e-05
7.21584e-05
7.37838e-05
7.47059e-05
7.49248e-05
7.45206e-05
7.38052e-05
7.29022e-05
7.18004e-05
7.09003e-05
7.02741e-05
7.00541e-05
7.03531e-05
7.10857e-05
7.15392e-05
7.07501e-05
6.73403e-05
6.07055e-05
5.36617e-05
5.02063e-05
5.00566e-05
4.71684e-05
3.25198e-05
7.25971e-06
1.70671e-06
2.00594e-05
2.9663e-05
3.45668e-05
3.53412e-05
3.73969e-05
4.03715e-05
4.34895e-05
4.63733e-05
4.89691e-05
5.14602e-05
5.40933e-05
5.69207e-05
5.98495e-05
6.27538e-05
6.55242e-05
6.79827e-05
6.99675e-05
7.13698e-05
7.21414e-05
7.23031e-05
7.19218e-05
7.12794e-05
7.04877e-05
6.95109e-05
6.88021e-05
6.84808e-05
6.86941e-05
6.93561e-05
7.03243e-05
7.11699e-05
7.10602e-05
6.84988e-05
6.20423e-05
5.44193e-05
5.01708e-05
5.0068e-05
4.78855e-05
3.39773e-05
7.67836e-06
1.52951e-06
1.83586e-05
2.78626e-05
3.39902e-05
3.51107e-05
3.68585e-05
3.98741e-05
4.27498e-05
4.56105e-05
4.82314e-05
5.07463e-05
5.32111e-05
5.56978e-05
5.82309e-05
6.07744e-05
6.32022e-05
6.53653e-05
6.71293e-05
6.84019e-05
6.91473e-05
6.93886e-05
6.91614e-05
6.86994e-05
6.80597e-05
6.72295e-05
6.66322e-05
6.63811e-05
6.66687e-05
6.76716e-05
6.92314e-05
7.07685e-05
7.11537e-05
6.91406e-05
6.34518e-05
5.50695e-05
5.00645e-05
4.99164e-05
4.84824e-05
3.53809e-05
8.08507e-06
1.36203e-06
1.66569e-05
2.615e-05
3.28862e-05
3.50773e-05
3.63994e-05
3.9102e-05
4.2118e-05
4.47818e-05
4.73958e-05
4.97999e-05
5.20679e-05
5.42678e-05
5.64813e-05
5.86785e-05
6.07705e-05
6.26511e-05
6.42185e-05
6.53972e-05
6.61527e-05
6.64962e-05
6.64252e-05
6.61611e-05
6.56974e-05
6.50943e-05
6.4701e-05
6.46195e-05
6.5059e-05
6.61843e-05
6.79492e-05
6.98902e-05
7.10232e-05
6.97895e-05
6.43477e-05
5.56482e-05
4.98235e-05
4.96538e-05
4.90031e-05
3.67315e-05
8.47991e-06
1.19844e-06
1.49529e-05
2.44407e-05
3.12959e-05
3.48269e-05
3.60187e-05
3.82153e-05
4.1295e-05
4.39397e-05
4.63697e-05
4.86422e-05
5.07697e-05
5.27627e-05
5.46992e-05
5.65869e-05
5.83808e-05
6.001e-05
6.13994e-05
6.2489e-05
6.32469e-05
6.36828e-05
6.37955e-05
6.36827e-05
6.34473e-05
6.31282e-05
6.29599e-05
6.30762e-05
6.36811e-05
6.49619e-05
6.6929e-05
6.91649e-05
7.06732e-05
6.99989e-05
6.49374e-05
5.61491e-05
4.94387e-05
4.91407e-05
4.9448e-05
3.79977e-05
8.85621e-06
1.04006e-06
1.32961e-05
2.2635e-05
2.9523e-05
3.45196e-05
3.55567e-05
3.73857e-05
4.01123e-05
4.3019e-05
4.53932e-05
4.74794e-05
4.94179e-05
5.11982e-05
5.28908e-05
5.45113e-05
5.6045e-05
5.7453e-05
5.86865e-05
5.97014e-05
6.04683e-05
6.10046e-05
6.13138e-05
6.13382e-05
6.13352e-05
6.13248e-05
6.13945e-05
6.1722e-05
6.24953e-05
6.39039e-05
6.59884e-05
6.83856e-05
7.01214e-05
6.98109e-05
6.55132e-05
5.62187e-05
4.89314e-05
4.84589e-05
4.97574e-05
3.91664e-05
9.2129e-06
8.81008e-07
1.16757e-05
2.11359e-05
2.73341e-05
3.3412e-05
3.53987e-05
3.67797e-05
3.89247e-05
4.17165e-05
4.42349e-05
4.63097e-05
4.8059e-05
4.96359e-05
5.11116e-05
5.25063e-05
5.38229e-05
5.50461e-05
5.61486e-05
5.71033e-05
5.78773e-05
5.85405e-05
5.89775e-05
5.91558e-05
5.94108e-05
5.96712e-05
5.99807e-05
6.0522e-05
6.14603e-05
6.29707e-05
6.50956e-05
6.75175e-05
6.92864e-05
6.90749e-05
6.52463e-05
5.58992e-05
4.82803e-05
4.75073e-05
5.00084e-05
4.02337e-05
9.54654e-06
7.38478e-07
1.03049e-05
1.98774e-05
2.52904e-05
3.14774e-05
3.49423e-05
3.62858e-05
3.80469e-05
4.03118e-05
4.28263e-05
4.49722e-05
4.66962e-05
4.81295e-05
4.94268e-05
5.06332e-05
5.17699e-05
5.28403e-05
5.38335e-05
5.47393e-05
5.55092e-05
5.63502e-05
5.67524e-05
5.7138e-05
5.76892e-05
5.81441e-05
5.86757e-05
5.94154e-05
6.04975e-05
6.20695e-05
6.41415e-05
6.64332e-05
6.80319e-05
6.76942e-05
6.4228e-05
5.51929e-05
4.72566e-05
4.62448e-05
5.01277e-05
4.11394e-05
9.85673e-06
6.1739e-07
9.16362e-06
1.88539e-05
2.35062e-05
2.93958e-05
3.41759e-05
3.58469e-05
3.73899e-05
3.91927e-05
4.13205e-05
4.34513e-05
4.5232e-05
4.6646e-05
4.78332e-05
4.89037e-05
4.99035e-05
5.0854e-05
5.17601e-05
5.26146e-05
5.34238e-05
5.43165e-05
5.47212e-05
5.53293e-05
5.60631e-05
5.66911e-05
5.74044e-05
5.83021e-05
5.94748e-05
6.10355e-05
6.29272e-05
6.49083e-05
6.6108e-05
6.54308e-05
6.19361e-05
5.33535e-05
4.55165e-05
4.47076e-05
5.01027e-05
4.18885e-05
1.01464e-05
5.14886e-07
8.30211e-06
1.81978e-05
2.21792e-05
2.72659e-05
3.24541e-05
3.52907e-05
3.69725e-05
3.86153e-05
4.02914e-05
4.20411e-05
4.37882e-05
4.52508e-05
4.63997e-05
4.73856e-05
4.82813e-05
4.91276e-05
4.99576e-05
5.07268e-05
5.16284e-05
5.2387e-05
5.28988e-05
5.36706e-05
5.44639e-05
5.52178e-05
5.60422e-05
5.70177e-05
5.81731e-05
5.95943e-05
6.11223e-05
6.2587e-05
6.31454e-05
6.20023e-05
5.82843e-05
5.0675e-05
4.37839e-05
4.29086e-05
4.97429e-05
4.23121e-05
1.04197e-05
4.27313e-07
7.77548e-06
1.76023e-05
2.17875e-05
2.57648e-05
3.0687e-05
3.46239e-05
3.65277e-05
3.81569e-05
3.9684e-05
4.11379e-05
4.24856e-05
4.38332e-05
4.5007e-05
4.59688e-05
4.68147e-05
4.75942e-05
4.83719e-05
4.90588e-05
4.99776e-05
5.06612e-05
5.12022e-05
5.19973e-05
5.27953e-05
5.35674e-05
5.43683e-05
5.5271e-05
5.62151e-05
5.72936e-05
5.82085e-05
5.89519e-05
5.86586e-05
5.70472e-05
5.3177e-05
4.6886e-05
4.17282e-05
4.17358e-05
4.92242e-05
4.19702e-05
1.06938e-05
3.76046e-07
7.72135e-06
1.67011e-05
2.16231e-05
2.44777e-05
2.89162e-05
3.33174e-05
3.6576e-05
3.83911e-05
3.99043e-05
4.12349e-05
4.2399e-05
4.34129e-05
4.43259e-05
4.5139e-05
4.58577e-05
4.65115e-05
4.71514e-05
4.77522e-05
4.84175e-05
4.91522e-05
4.95316e-05
5.01233e-05
5.07928e-05
5.13824e-05
5.19234e-05
5.25047e-05
5.29434e-05
5.34172e-05
5.34568e-05
5.33668e-05
5.21771e-05
5.03353e-05
4.66725e-05
4.19095e-05
3.84518e-05
4.02629e-05
4.8407e-05
4.15054e-05
1.09577e-05
3.80224e-07
8.63715e-06
1.63523e-05
2.13413e-05
2.4585e-05
2.7946e-05
3.19562e-05
3.55792e-05
3.85047e-05
4.02185e-05
4.15147e-05
4.25555e-05
4.33888e-05
4.41017e-05
4.47317e-05
4.52961e-05
4.5799e-05
4.62544e-05
4.66237e-05
4.68733e-05
4.72136e-05
4.73499e-05
4.74679e-05
4.76455e-05
4.77893e-05
4.77624e-05
4.77255e-05
4.73723e-05
4.70689e-05
4.61865e-05
4.54499e-05
4.37462e-05
4.22605e-05
3.95386e-05
3.71118e-05
3.6104e-05
3.93094e-05
4.74303e-05
4.07475e-05
1.10659e-05
5.02474e-07
1.05751e-05
1.68968e-05
2.19135e-05
2.53045e-05
2.88274e-05
3.23234e-05
3.60918e-05
3.92034e-05
4.20027e-05
4.3809e-05
4.49812e-05
4.58296e-05
4.62159e-05
4.62821e-05
4.61162e-05
4.58032e-05
4.53528e-05
4.49167e-05
4.43359e-05
4.38785e-05
4.31177e-05
4.27935e-05
4.22473e-05
4.1472e-05
4.07233e-05
4.00089e-05
3.90047e-05
3.82184e-05
3.70256e-05
3.63432e-05
3.5122e-05
3.47791e-05
3.38097e-05
3.4294e-05
3.52438e-05
3.98393e-05
4.61462e-05
3.86895e-05
1.10894e-05
7.35377e-07
1.32125e-05
1.89451e-05
2.30967e-05
2.69207e-05
3.07524e-05
3.42068e-05
3.7348e-05
3.99283e-05
4.21637e-05
4.40691e-05
4.4938e-05
4.51108e-05
4.48394e-05
4.41046e-05
4.32154e-05
4.22215e-05
4.11163e-05
4.00299e-05
3.88438e-05
3.75565e-05
3.65336e-05
3.54807e-05
3.42289e-05
3.31683e-05
3.22248e-05
3.14668e-05
3.0847e-05
3.05229e-05
3.01995e-05
3.04584e-05
3.06805e-05
3.18033e-05
3.28098e-05
3.51452e-05
3.7769e-05
4.24516e-05
4.42421e-05
3.6989e-05
1.08433e-05
1.18344e-06
1.71175e-05
2.06722e-05
2.49327e-05
2.88101e-05
3.23924e-05
3.53177e-05
3.76278e-05
3.92291e-05
3.99519e-05
4.07176e-05
4.08656e-05
4.04471e-05
3.9759e-05
3.88512e-05
3.77969e-05
3.64604e-05
3.52381e-05
3.41366e-05
3.3159e-05
3.21412e-05
3.12372e-05
3.06116e-05
3.0164e-05
2.98699e-05
2.98362e-05
2.99668e-05
3.04001e-05
3.10442e-05
3.19784e-05
3.33022e-05
3.46872e-05
3.6762e-05
3.86072e-05
4.16195e-05
4.38396e-05
4.6139e-05
4.29654e-05
3.36776e-05
1.02613e-05
2.12584e-06
2.03562e-05
2.29139e-05
2.73706e-05
3.06094e-05
3.31622e-05
3.5018e-05
3.62845e-05
3.71604e-05
3.73516e-05
3.75367e-05
3.7659e-05
3.74097e-05
3.72883e-05
3.70849e-05
3.6768e-05
3.64733e-05
3.62338e-05
3.60819e-05
3.60582e-05
3.61313e-05
3.63374e-05
3.66159e-05
3.70847e-05
3.75914e-05
3.8322e-05
3.906e-05
4.00391e-05
4.10364e-05
4.22217e-05
4.35476e-05
4.47946e-05
4.66741e-05
4.74015e-05
4.97851e-05
4.84941e-05
4.67764e-05
4.0932e-05
2.57455e-05
9.06395e-06
1.43525e-06
2.29549e-06
3.05122e-06
3.90267e-06
4.67012e-06
5.35571e-06
5.93998e-06
6.40441e-06
6.77696e-06
7.03029e-06
7.19794e-06
7.29741e-06
7.3459e-06
7.34315e-06
7.32776e-06
7.29372e-06
7.24636e-06
7.19752e-06
7.1507e-06
7.11088e-06
7.08212e-06
7.06625e-06
7.07065e-06
7.08648e-06
7.1279e-06
7.17548e-06
7.27886e-06
7.35875e-06
7.53e-06
7.64171e-06
7.88136e-06
8.02057e-06
8.32858e-06
8.5425e-06
9.02825e-06
9.302e-06
9.7789e-06
9.77409e-06
9.43086e-06
7.87432e-06
)
;

boundaryField
{
    movingWall
    {
        type            nutkWallFunction;
        Cmu             0.09;
        kappa           0.41;
        E               9.8;
        value           uniform 0;
    }
    fixedWalls
    {
        type            nutkWallFunction;
        Cmu             0.09;
        kappa           0.41;
        E               9.8;
        value           uniform 0;
    }
    frontAndBack
    {
        type            empty;
    }
}


// ************************************************************************* //
