/*--------------------------------*- C++ -*----------------------------------*\
  =========                 |
  \\      /  F ield         | OpenFOAM: The Open Source CFD Toolbox
   \\    /   O peration     | Website:  https://openfoam.org
    \\  /    A nd           | Version:  12
     \\/     M anipulation  |
\*---------------------------------------------------------------------------*/
FoamFile
{
    format      ascii;
    class       volScalarField;
    location    "5";
    object      p;
}
// * * * * * * * * * * * * * * * * * * * * * * * * * * * * * * * * * * * * * //

dimensions      [0 2 -2 0 0 0 0];

internalField   nonuniform List<scalar> 
1600
(
1.51766e-08
-1.72392e-05
-8.77827e-05
-0.000192655
-0.000294232
-0.000379421
-0.000459057
-0.000557185
-0.000683911
-0.00084022
-0.00103456
-0.00131234
-0.00169084
-0.00193007
-0.00209805
-0.0024908
-0.00313291
-0.00390345
-0.00467
-0.00531249
-0.00574248
-0.00589445
-0.00571987
-0.00517735
-0.0042735
-0.00302229
-0.00142733
0.000467239
0.00256992
0.00469935
0.0066003
0.00797934
0.00861823
0.00847489
0.0075937
0.00666459
0.00607226
0.00596033
0.00603687
0.00607161
-1.19783e-05
-4.93552e-05
-0.000127431
-0.000230277
-0.000310598
-0.000362812
-0.000410637
-0.000487513
-0.000600096
-0.000734421
-0.000864638
-0.0010541
-0.00140461
-0.0018677
-0.00237912
-0.00299187
-0.00371917
-0.0045037
-0.00525188
-0.0058682
-0.00627763
-0.00642546
-0.00626948
-0.00578473
-0.00496902
-0.00379491
-0.00227867
-0.000461545
0.00156079
0.00363645
0.00554464
0.0070047
0.00777926
0.00777624
0.00708582
0.00618373
0.00571469
0.00576417
0.00590569
0.00597374
-2.22518e-05
-9.60887e-05
-0.00019777
-0.000299252
-0.000354452
-0.000364768
-0.000368803
-0.000392803
-0.000461327
-0.000633691
-0.000938246
-0.00134454
-0.00186745
-0.00250893
-0.00325004
-0.00405368
-0.00487313
-0.00566103
-0.00636339
-0.00692394
-0.00729351
-0.00742356
-0.00728433
-0.00685678
-0.00611207
-0.00504363
-0.00366296
-0.0020023
-0.000129431
0.00184575
0.00374242
0.00533427
0.00638719
0.00674464
0.00646502
0.00590255
0.00560441
0.00564582
0.00578438
0.00582987
-7.73491e-06
-0.000118956
-0.000255752
-0.000348719
-0.000373042
-0.000356749
-0.000352927
-0.000402275
-0.000552643
-0.000877966
-0.00141149
-0.00210656
-0.00289519
-0.00374242
-0.00462675
-0.00551151
-0.0063543
-0.00712295
-0.00778337
-0.00829997
-0.00863327
-0.00874207
-0.00860731
-0.00821341
-0.00754617
-0.00659963
-0.00538175
-0.00391433
-0.00224029
-0.000428155
0.00140321
0.00309351
0.00444222
0.00528266
0.00561809
0.00562187
0.00563451
0.00566171
0.00572457
0.00572029
0.00011698
-4.7064e-05
-0.000204997
-0.000298002
-0.000329232
-0.000341033
-0.000400999
-0.000581414
-0.00094872
-0.00154347
-0.00234566
-0.00327983
-0.00426807
-0.00525859
-0.00621924
-0.00713082
-0.00797584
-0.00873518
-0.00936676
-0.00983729
-0.0101192
-0.010202
-0.0100744
-0.00972385
-0.00913805
-0.00831609
-0.00725974
-0.00597915
-0.0044991
-0.0028682
-0.00116019
0.000527765
0.00207981
0.00338352
0.00437936
0.005074
0.00552945
0.00574878
0.0057075
0.0056405
0.000406556
0.000177653
5.06198e-08
-0.000122964
-0.000214764
-0.000336696
-0.000573062
-0.00100436
-0.00167203
-0.00255782
-0.00359349
-0.00469748
-0.00580748
-0.00687738
-0.00788573
-0.00881613
-0.00964427
-0.0103463
-0.0109028
-0.011306
-0.0115431
-0.0116063
-0.0114891
-0.0111826
-0.0106798
-0.00997957
-0.00908169
-0.00798905
-0.00671064
-0.0052672
-0.00369556
-0.00205191
-0.000403637
0.001205
0.00272574
0.0040615
0.00506077
0.00564099
0.00563507
0.00552441
0.000838151
0.000560941
0.000338317
0.000143979
-7.54606e-05
-0.00040185
-0.000917482
-0.0016708
-0.00264784
-0.00378519
-0.00499699
-0.00621592
-0.00739423
-0.00849657
-0.0095017
-0.010394
-0.0111631
-0.0117973
-0.0122902
-0.0126388
-0.0128379
-0.0128837
-0.0127728
-0.0125008
-0.0120653
-0.0114656
-0.0107011
-0.00977207
-0.00867941
-0.00742679
-0.00602305
-0.00448351
-0.00282356
-0.0010547
0.000788215
0.00260254
0.0041514
0.00518264
0.00556533
0.00535329
0.00135133
0.00103965
0.000725163
0.000411044
-2.50363e-06
-0.000606753
-0.00145219
-0.00252809
-0.00377385
-0.00510075
-0.00643197
-0.00771504
-0.0089122
-0.00999934
-0.010964
-0.0117997
-0.0125045
-0.0130762
-0.013514
-0.0138173
-0.0139847
-0.0140156
-0.0139091
-0.0136641
-0.0132808
-0.0127593
-0.0120997
-0.0113007
-0.0103595
-0.0092712
-0.00802898
-0.00662338
-0.00503799
-0.00324867
-0.00125248
0.00086028
0.00284993
0.00441401
0.00530195
0.00500003
0.0018034
0.00142545
0.00101867
0.00055776
-9.2719e-05
-0.00100252
-0.00216325
-0.00351583
-0.00496283
-0.00641643
-0.00781417
-0.00911626
-0.0102968
-0.0113441
-0.0122553
-0.0130318
-0.0136769
-0.0141932
-0.0145833
-0.0148486
-0.0149904
-0.0150098
-0.0149073
-0.0146843
-0.0143418
-0.0138809
-0.0133023
-0.0126049
-0.0117846
-0.0108323
-0.00973282
-0.00846299
-0.00698984
-0.00526912
-0.00326002
-0.000998379
0.00129678
0.00331401
0.00463088
0.00471713
0.00205477
0.0016196
0.00111171
0.000486476
-0.000409002
-0.00160167
-0.00302321
-0.00457719
-0.00615657
-0.00767966
-0.00909915
-0.0103874
-0.0115308
-0.0125283
-0.013384
-0.0141046
-0.0146968
-0.015166
-0.0155167
-0.0157522
-0.015875
-0.015887
-0.0157895
-0.0155844
-0.0152736
-0.0148587
-0.0143413
-0.0137208
-0.0129936
-0.0121504
-0.0111734
-0.0100342
-0.00869238
-0.00709343
-0.00516983
-0.00289442
-0.000443161
0.00184577
0.00362099
0.0045749
0.00201853
0.00153855
0.000933851
0.000149318
-0.000966517
-0.00238176
-0.00399235
-0.00566833
-0.00731762
-0.00886198
-0.0102694
-0.0115225
-0.0126184
-0.0135632
-0.014366
-0.0150368
-0.0155843
-0.0160156
-0.0163362
-0.0165501
-0.0166603
-0.0166686
-0.016577
-0.0163874
-0.0161019
-0.0157227
-0.0152515
-0.0146889
-0.0140323
-0.013274
-0.0123975
-0.0113749
-0.0101651
-0.00871251
-0.00694159
-0.00477774
-0.0023002
8.93085e-05
0.00217255
0.00363076
0.00167105
0.00115606
0.000467683
-0.000450649
-0.00173231
-0.00330186
-0.0050184
-0.00675483
-0.00842045
-0.00994934
-0.0113213
-0.0125268
-0.0135709
-0.0144645
-0.0152197
-0.0158481
-0.0163597
-0.016762
-0.0170607
-0.0172599
-0.0173624
-0.0173703
-0.0172853
-0.0171096
-0.0168451
-0.016494
-0.0160585
-0.01554
-0.0149374
-0.0142454
-0.0134509
-0.0125297
-0.0114438
-0.010141
-0.0085511
-0.00658008
-0.00419985
-0.00182915
0.00027381
0.00180471
0.00103326
0.000499746
-0.000248385
-0.00126771
-0.00265055
-0.00430344
-0.00605644
-0.00780364
-0.00944623
-0.0109349
-0.0122569
-0.0134092
-0.0144019
-0.0152484
-0.0159624
-0.0165562
-0.0170397
-0.0174204
-0.0177036
-0.0178932
-0.0179919
-0.0180014
-0.0179236
-0.0177603
-0.0175135
-0.0171854
-0.0167782
-0.0162939
-0.0157332
-0.0150932
-0.0143652
-0.0135301
-0.0125557
-0.0113952
-0.00998662
-0.00824206
-0.00609482
-0.00381718
-0.00187184
-0.000481007
0.000169971
-0.00036355
-0.00114338
-0.00222418
-0.00365654
-0.00532686
-0.00706892
-0.00878776
-0.0103816
-0.0118154
-0.0130807
-0.0141791
-0.0151236
-0.0159285
-0.0166079
-0.0171739
-0.0176359
-0.0180006
-0.0182731
-0.0184568
-0.018554
-0.0185664
-0.0184958
-0.0183438
-0.0181122
-0.0178031
-0.0174189
-0.0169622
-0.0164348
-0.0158365
-0.0151626
-0.0144003
-0.0135243
-0.0124947
-0.0112572
-0.00974061
-0.00787574
-0.0057781
-0.00407267
-0.00289886
-0.000828991
-0.00134967
-0.00213773
-0.00323983
-0.00467543
-0.00631749
-0.00802285
-0.0096865
-0.0112173
-0.0125897
-0.0137973
-0.0148447
-0.0157458
-0.0165151
-0.0171661
-0.01771
-0.0181554
-0.0185085
-0.0187736
-0.0189538
-0.019051
-0.019067
-0.0190032
-0.0188612
-0.0186426
-0.0183494
-0.0179842
-0.0175499
-0.0170495
-0.016485
-0.0158555
-0.0151538
-0.0143624
-0.0134493
-0.0123696
-0.0110691
-0.00947969
-0.00763078
-0.00616367
-0.00520462
-0.00187442
-0.00237099
-0.00314963
-0.00424113
-0.00564741
-0.00723636
-0.00888743
-0.0104833
-0.0119467
-0.0132576
-0.0144106
-0.0154121
-0.0162757
-0.017015
-0.0176429
-0.0181695
-0.0186024
-0.018947
-0.019207
-0.0193852
-0.0194833
-0.0195029
-0.0194453
-0.0193119
-0.0191043
-0.0188245
-0.0184749
-0.018059
-0.0175804
-0.0170431
-0.0164495
-0.0157975
-0.0150765
-0.0142632
-0.0133209
-0.0122049
-0.0108624
-0.0093168
-0.00806902
-0.00726869
-0.00288238
-0.00334859
-0.00410438
-0.00516826
-0.00652806
-0.00805364
-0.00964053
-0.0111661
-0.0125648
-0.0138186
-0.0149231
-0.015885
-0.0167171
-0.0174322
-0.0180418
-0.018555
-0.0189785
-0.0193169
-0.0195736
-0.0197508
-0.0198503
-0.0198732
-0.019821
-0.0196948
-0.0194962
-0.0192272
-0.0188902
-0.0184889
-0.0180278
-0.0175121
-0.016947
-0.0163347
-0.015671
-0.0149402
-0.0141133
-0.0131505
-0.0120162
-0.0107488
-0.00970765
-0.00903546
-0.00378975
-0.00421901
-0.00494332
-0.00597351
-0.00728281
-0.00874514
-0.010267
-0.0117268
-0.0130676
-0.0142719
-0.0153356
-0.0162651
-0.0170721
-0.0177682
-0.0183639
-0.0188672
-0.0192839
-0.0196181
-0.0198728
-0.0200498
-0.0201507
-0.0201767
-0.0201288
-0.0200084
-0.0198168
-0.019556
-0.0192287
-0.0188384
-0.0183903
-0.0178908
-0.017347
-0.0167651
-0.0161462
-0.0154815
-0.0147478
-0.0139103
-0.0129506
-0.0119171
-0.0110552
-0.0104834
-0.00454492
-0.00494223
-0.00563016
-0.00662465
-0.00788585
-0.00929304
-0.0107562
-0.0121594
-0.0134518
-0.014616
-0.0156475
-0.0165522
-0.0173405
-0.018023
-0.0186089
-0.0191055
-0.019518
-0.0198498
-0.0201036
-0.0202811
-0.0203835
-0.0204119
-0.0203673
-0.020251
-0.0200643
-0.0198092
-0.0194883
-0.0191054
-0.018666
-0.0181772
-0.0176479
-0.0170871
-0.0165007
-0.0158858
-0.0152252
-0.0144897
-0.0136706
-0.0128124
-0.0121026
-0.011615
-0.00512693
-0.00548422
-0.00614094
-0.00710418
-0.00832317
-0.00968587
-0.0111013
-0.0124592
-0.0137144
-0.0148488
-0.0158574
-0.0167451
-0.0175211
-0.0181952
-0.0187756
-0.0192688
-0.0196794
-0.0200107
-0.0202649
-0.0204434
-0.0205473
-0.0205776
-0.0205353
-0.0204213
-0.0202373
-0.0199849
-0.0196671
-0.0192876
-0.0188522
-0.0183687
-0.0178469
-0.0172983
-0.0167324
-0.0161517
-0.0155453
-0.0148901
-0.0141812
-0.0134564
-0.012864
-0.0124425
-0.00551322
-0.00583764
-0.00647154
-0.00740769
-0.00858929
-0.00991903
-0.0112981
-0.0126228
-0.0138524
-0.0149678
-0.0159626
-0.0168412
-0.0176116
-0.0182826
-0.0188618
-0.019355
-0.0197666
-0.0200994
-0.0203553
-0.0205356
-0.0206411
-0.0206728
-0.0206314
-0.0205181
-0.0203342
-0.0200817
-0.0197632
-0.0193829
-0.0189464
-0.0184621
-0.0179408
-0.0173955
-0.0168389
-0.0162778
-0.0157077
-0.0151124
-0.0144868
-0.0138583
-0.0133532
-0.0129839
-0.00568945
-0.00599905
-0.0066222
-0.00753884
-0.00868831
-0.00999206
-0.0113437
-0.0126477
-0.0138632
-0.0149695
-0.01596
-0.0168374
-0.0176089
-0.0182825
-0.0188651
-0.0193622
-0.0197777
-0.0201143
-0.0203735
-0.0205565
-0.0206639
-0.0206964
-0.0206548
-0.0205402
-0.0203538
-0.0200976
-0.0197746
-0.0193886
-0.0189459
-0.0184543
-0.0179263
-0.0173757
-0.0168174
-0.0162623
-0.0157121
-0.0151578
-0.0145947
-0.0140359
-0.0135909
-0.0132572
-0.00568273
-0.00598186
-0.00659876
-0.00750333
-0.00862764
-0.00990721
-0.0112431
-0.0125356
-0.0137456
-0.0148517
-0.015846
-0.0167298
-0.0175092
-0.0181913
-0.0187824
-0.0192877
-0.0197106
-0.0200536
-0.0203181
-0.0205049
-0.0206147
-0.0206478
-0.0206049
-0.0204869
-0.0202952
-0.0200316
-0.0196992
-0.0193022
-0.018847
-0.0183421
-0.0177999
-0.0172355
-0.0166652
-0.0161035
-0.0155577
-0.0150259
-0.0145063
-0.0139962
-0.0136024
-0.0132784
-0.00552684
-0.00581354
-0.00642292
-0.00731833
-0.00842081
-0.0096728
-0.0109981
-0.0122861
-0.0134974
-0.0146107
-0.0156163
-0.0165139
-0.0173082
-0.0180051
-0.0186103
-0.0191284
-0.0195627
-0.0199153
-0.0201875
-0.0203798
-0.0204927
-0.0205262
-0.020481
-0.0203578
-0.0201578
-0.0198829
-0.0195363
-0.0191225
-0.018648
-0.0181223
-0.0175582
-0.0169714
-0.0163793
-0.0157991
-0.0152432
-0.0147168
-0.0142239
-0.0137453
-0.0134175
-0.0130592
-0.00525797
-0.00553005
-0.00612547
-0.00700633
-0.00808626
-0.00930461
-0.0106122
-0.0118986
-0.0131161
-0.0142423
-0.015266
-0.0161846
-0.0170008
-0.0177191
-0.0183445
-0.0188809
-0.0193312
-0.0196973
-0.0199801
-0.0201799
-0.0202969
-0.0203311
-0.0202827
-0.0201523
-0.019941
-0.0196509
-0.0192851
-0.0188483
-0.0183477
-0.0177934
-0.0171989
-0.0165807
-0.0159574
-0.0153476
-0.0147678
-0.0142314
-0.0137517
-0.013282
-0.0130341
-0.0126112
-0.00492318
-0.00517515
-0.00574227
-0.00659146
-0.00764021
-0.00882194
-0.0100954
-0.0113755
-0.0126001
-0.0137426
-0.0147896
-0.0157356
-0.0165808
-0.0173278
-0.0179802
-0.0185412
-0.0190129
-0.019397
-0.0196939
-0.0199038
-0.0200265
-0.0200617
-0.0200094
-0.0198701
-0.0196447
-0.0193352
-0.018945
-0.0184791
-0.0179454
-0.0173546
-0.0167211
-0.0160624
-0.0153983
-0.0147484
-0.0141335
-0.0135774
-0.013099
-0.012609
-0.0124146
-0.011948
-0.00457824
-0.00479816
-0.00531259
-0.00610391
-0.00709905
-0.00823317
-0.00946112
-0.0107221
-0.0119483
-0.0131073
-0.0141812
-0.0151605
-0.0160418
-0.0168252
-0.0175122
-0.0181047
-0.0186041
-0.0190114
-0.0193268
-0.0195499
-0.0196803
-0.0197174
-0.0196611
-0.0195115
-0.0192693
-0.0189366
-0.0185169
-0.0180157
-0.0174415
-0.0168062
-0.0161251
-0.0154169
-0.014702
-0.014002
-0.0133419
-0.0127575
-0.0122748
-0.0117321
-0.0115678
-0.0110785
-0.00427872
-0.00444299
-0.00486999
-0.00557166
-0.00648514
-0.00754882
-0.00871765
-0.00994259
-0.0111603
-0.0123325
-0.0134349
-0.0144525
-0.015377
-0.0162048
-0.0169346
-0.0175666
-0.0181009
-0.0185377
-0.0188765
-0.0191169
-0.0192578
-0.0192984
-0.0192383
-0.0190774
-0.0188164
-0.0184571
-0.0180033
-0.017461
-0.0168395
-0.0161517
-0.0154145
-0.0146473
-0.0138722
-0.0131117
-0.0123957
-0.0117695
-0.0112581
-0.0106738
-0.0105543
-0.00999742
-0.00405862
-0.00413457
-0.00443716
-0.00501879
-0.00582174
-0.00678499
-0.00787175
-0.00904116
-0.0102368
-0.0114155
-0.0125459
-0.0136058
-0.0145802
-0.0154607
-0.0162423
-0.0169225
-0.0174998
-0.0179732
-0.0183416
-0.0186039
-0.0187588
-0.0188052
-0.0187426
-0.0185702
-0.0182889
-0.0179005
-0.0174089
-0.0168206
-0.0161457
-0.0153984
-0.0145968
-0.0137617
-0.0129165
-0.0120848
-0.0113017
-0.0106201
-0.0100666
-0.0094261
-0.00936852
-0.0086705
-0.00390916
-0.0038554
-0.00402444
-0.00446652
-0.00512851
-0.00595837
-0.00693324
-0.00802385
-0.00918063
-0.0103565
-0.0115122
-0.0126167
-0.0136473
-0.0145887
-0.0154314
-0.0161693
-0.0167985
-0.0173166
-0.0177215
-0.0180115
-0.0181849
-0.0182405
-0.0181775
-0.0179944
-0.0176926
-0.0172738
-0.016742
-0.0161043
-0.0153715
-0.0145588
-0.0136857
-0.0127739
-0.0118489
-0.0109353
-0.0100732
-0.00932091
-0.00870457
-0.00797174
-0.00801308
-0.00703374
-0.0037292
-0.00357229
-0.00364262
-0.00393142
-0.0044194
-0.00508189
-0.00591422
-0.00690098
-0.00799983
-0.00916093
-0.0103368
-0.0114867
-0.0125785
-0.0135888
-0.0145019
-0.0153071
-0.0159978
-0.0165693
-0.0170185
-0.0173428
-0.0175402
-0.0176092
-0.0175484
-0.0173578
-0.017037
-0.0165884
-0.0160162
-0.0153278
-0.0145347
-0.0136528
-0.0127026
-0.0117067
-0.0106921
-0.00968521
-0.00873132
-0.00789056
-0.00718464
-0.00632684
-0.00646945
-0.00500449
-0.00346945
-0.00331135
-0.00330616
-0.00342259
-0.00370445
-0.00416738
-0.00482863
-0.00568726
-0.00670912
-0.00784248
-0.00903176
-0.0102258
-0.011382
-0.0124679
-0.0134599
-0.014342
-0.0151036
-0.0157376
-0.0162394
-0.0166055
-0.0168335
-0.0169217
-0.0168686
-0.0166739
-0.0163374
-0.015862
-0.0152519
-0.0145146
-0.013662
-0.0127101
-0.0116796
-0.0105935
-0.00948017
-0.00836813
-0.00730821
-0.00635584
-0.00552946
-0.00453185
-0.00467385
-0.00255095
-0.00322236
-0.00310914
-0.0030201
-0.00294512
-0.00299251
-0.00322655
-0.00369189
-0.00440289
-0.00533243
-0.00642653
-0.00762205
-0.0088574
-0.0100791
-0.0112447
-0.0123222
-0.0132891
-0.0141302
-0.0148354
-0.0153981
-0.0158139
-0.0160799
-0.0161939
-0.016155
-0.015963
-0.015617
-0.0151207
-0.0144788
-0.0136984
-0.012791
-0.0117718
-0.0106612
-0.00948091
-0.00826074
-0.00703035
-0.00584564
-0.00475155
-0.00376782
-0.00260849
-0.00253784
0.000270001
-0.00302168
-0.00295672
-0.0027716
-0.0024972
-0.0022899
-0.00227213
-0.00252361
-0.0030749
-0.00390397
-0.00495264
-0.00614919
-0.00742234
-0.0087083
-0.00995462
-0.0111209
-0.0121777
-0.0131047
-0.013888
-0.0145189
-0.0149918
-0.0153034
-0.0154511
-0.015434
-0.0152523
-0.0149075
-0.0144006
-0.0137371
-0.0129239
-0.0119713
-0.0108923
-0.00970487
-0.00842835
-0.00709216
-0.00572408
-0.00438199
-0.00309548
-0.00188974
-0.000477297
-2.89918e-05
0.00345268
-0.00282068
-0.00280791
-0.00252763
-0.00205777
-0.00158907
-0.00131255
-0.0013479
-0.00174004
-0.00246948
-0.00347321
-0.0046704
-0.00597964
-0.00732763
-0.00865295
-0.00990732
-0.0110547
-0.0120696
-0.0129348
-0.013639
-0.014175
-0.0145391
-0.0147288
-0.0147432
-0.0145827
-0.0142501
-0.0137455
-0.0130746
-0.012243
-0.0112589
-0.0101307
-0.00887242
-0.00749716
-0.00603072
-0.00449163
-0.00293181
-0.00135535
0.000205724
0.00205125
0.00309682
0.00738089
-0.00259296
-0.00260268
-0.00225512
-0.0015984
-0.000880756
-0.000364995
-0.000203719
-0.000453373
-0.00109463
-0.00205985
-0.00326
-0.00460458
-0.00601124
-0.00741072
-0.0087482
-0.00998206
-0.0110826
-0.0120291
-0.012808
-0.0134107
-0.0138325
-0.014071
-0.0141255
-0.0139965
-0.0136864
-0.0131977
-0.012533
-0.0116964
-0.0106946
-0.00952827
-0.00820517
-0.00672608
-0.00510677
-0.00334162
-0.00146081
0.000584945
0.00276677
0.00542439
0.00758653
0.0134758
-0.00232854
-0.0023421
-0.00190923
-0.00109491
-0.000161526
0.0005454
0.000859422
0.000721787
0.000150545
-0.000784234
-0.00198755
-0.00336226
-0.00482016
-0.00628569
-0.00769844
-0.00901206
-0.0101932
-0.0112179
-0.0120707
-0.0127408
-0.013223
-0.0135144
-0.0136149
-0.0135247
-0.0132462
-0.01278
-0.012129
-0.0112935
-0.0102815
-0.00908372
-0.0077004
-0.00611142
-0.00431129
-0.00224507
0.000102757
0.00289721
0.00615095
0.0104047
0.01503
0.024636
-0.00221157
-0.00216818
-0.00157033
-0.000581932
0.000495763
0.00136096
0.00177267
0.00170482
0.00117317
0.000249834
-0.000966366
-0.00237153
-0.00387409
-0.00539514
-0.00686995
-0.00824883
-0.00949634
-0.010586
-0.0115007
-0.0122282
-0.0127629
-0.0131008
-0.0132426
-0.0131874
-0.0129384
-0.0124947
-0.0118606
-0.0110307
-0.0100022
-0.00876742
-0.00732386
-0.00562348
-0.00362647
-0.00120188
0.00175072
0.00561548
0.010542
0.0177824
0.027397
0.0440306
-0.00312031
-0.0024569
-0.00143807
-0.000171927
0.00107764
0.00202228
0.00250381
0.00247677
0.00196505
0.0010472
-0.000176911
-0.00160357
-0.00314042
-0.00470545
-0.00623148
-0.00766439
-0.00896647
-0.0101077
-0.0110707
-0.0118416
-0.0124161
-0.0127879
-0.0129594
-0.0129276
-0.0126978
-0.0122658
-0.0116374
-0.0108033
-0.00976839
-0.00851418
-0.0070246
-0.00523512
-0.00307204
-0.000369815
0.00320328
0.00828221
0.0155635
0.0276107
0.0452863
0.0720587
-0.00521953
-0.00161928
-9.53018e-05
0.00113526
0.00227621
0.00313983
0.00354911
0.00345296
0.00288241
0.00191483
0.000648541
-0.000821361
-0.00240561
-0.00402175
-0.00560087
-0.00708837
-0.0084414
-0.00963027
-0.0106338
-0.0114408
-0.0120438
-0.0124416
-0.0126316
-0.0126168
-0.0123959
-0.0119723
-0.0113414
-0.0105035
-0.00944486
-0.00815834
-0.00661687
-0.00482469
-0.00259667
0.000112148
0.0042707
0.0101766
0.0207281
0.0384744
0.0659653
0.101523
)
;

boundaryField
{
    movingWall
    {
        type            zeroGradient;
    }
    fixedWalls
    {
        type            zeroGradient;
    }
    frontAndBack
    {
        type            empty;
    }
}


// ************************************************************************* //
