/*--------------------------------*- C++ -*----------------------------------*\
  =========                 |
  \\      /  F ield         | OpenFOAM: The Open Source CFD Toolbox
   \\    /   O peration     | Website:  https://openfoam.org
    \\  /    A nd           | Version:  12
     \\/     M anipulation  |
\*---------------------------------------------------------------------------*/
FoamFile
{
    format      ascii;
    class       surfaceScalarField;
    location    "5";
    object      phi;
}
// * * * * * * * * * * * * * * * * * * * * * * * * * * * * * * * * * * * * * //

dimensions      [0 3 -1 0 0 0 0];

internalField   nonuniform List<scalar> 
3120
(
7.86339e-08
-7.86354e-08
1.98535e-07
-1.19901e-07
2.92414e-07
-9.38787e-08
3.31233e-07
-3.88197e-08
3.2965e-07
1.58353e-09
3.15738e-07
1.39119e-08
3.07343e-07
8.39516e-09
3.00734e-07
6.60859e-09
2.79747e-07
2.09872e-08
2.31922e-07
4.78245e-08
1.40938e-07
9.09838e-08
-3.53236e-08
1.76262e-07
-3.16022e-07
2.80698e-07
-7.2991e-07
4.13888e-07
-1.24861e-06
5.18701e-07
-1.78067e-06
5.32057e-07
-2.27405e-06
4.93377e-07
-2.70523e-06
4.31182e-07
-3.06758e-06
3.62354e-07
-3.36149e-06
2.93913e-07
-3.58799e-06
2.26498e-07
-3.74911e-06
1.61119e-07
-3.84417e-06
9.50537e-08
-3.87292e-06
2.87512e-08
-3.82822e-06
-4.46936e-08
-3.71313e-06
-1.15095e-07
-3.51557e-06
-1.97559e-07
-3.23261e-06
-2.82958e-07
-2.857e-06
-3.75613e-07
-2.38873e-06
-4.68272e-07
-1.82946e-06
-5.59268e-07
-1.19717e-06
-6.32283e-07
-5.45312e-07
-6.51863e-07
5.20244e-08
-5.97336e-07
5.28193e-07
-4.76168e-07
7.22979e-07
-1.94786e-07
6.15164e-07
1.07815e-07
3.95931e-07
2.19233e-07
1.64988e-07
2.30942e-07
1.64988e-07
1.43578e-07
-2.22214e-07
3.08551e-07
-2.84874e-07
4.15036e-07
-2.00364e-07
4.50558e-07
-7.43416e-08
4.29309e-07
2.2832e-08
3.66456e-07
7.67657e-08
2.74374e-07
1.00477e-07
1.36164e-07
1.44819e-07
-8.47973e-08
2.41948e-07
-4.30938e-07
3.93965e-07
-9.31131e-07
5.91177e-07
-1.55811e-06
8.03242e-07
-2.23447e-06
9.57058e-07
-2.84937e-06
1.02879e-06
-3.34016e-06
1.00948e-06
-3.74796e-06
9.3986e-07
-4.09461e-06
8.40028e-07
-4.38407e-06
7.20645e-07
-4.61774e-06
5.96023e-07
-4.79598e-06
4.72151e-07
-4.91901e-06
3.49531e-07
-4.99057e-06
2.32674e-07
-5.01025e-06
1.14739e-07
-4.97166e-06
-9.84461e-09
-4.88485e-06
-1.31496e-07
-4.7352e-06
-2.64744e-07
-4.52165e-06
-4.1111e-07
-4.23452e-06
-5.70094e-07
-3.86404e-06
-7.46092e-07
-3.40345e-06
-9.28863e-07
-2.85725e-06
-1.10546e-06
-2.23289e-06
-1.25665e-06
-1.55178e-06
-1.33297e-06
-8.55399e-07
-1.29372e-06
-2.50915e-07
-1.08065e-06
2.0471e-07
-6.50411e-07
3.56502e-07
-4.39779e-08
2.94034e-07
2.81702e-07
1.35763e-07
3.89214e-07
3.00751e-07
1.76854e-07
-3.99067e-07
3.05469e-07
-4.13489e-07
3.53533e-07
-2.48429e-07
3.31166e-07
-5.19743e-08
2.47107e-07
1.06891e-07
9.7728e-08
2.26145e-07
-1.49408e-07
3.47612e-07
-5.27155e-07
5.22566e-07
-1.05058e-06
7.65377e-07
-1.69193e-06
1.03531e-06
-2.36639e-06
1.26564e-06
-2.96992e-06
1.40677e-06
-3.47521e-06
1.46234e-06
-3.88158e-06
1.43517e-06
-4.21232e-06
1.34022e-06
-4.48039e-06
1.20793e-06
-4.696e-06
1.05564e-06
-4.86864e-06
8.93283e-07
-5.00493e-06
7.32319e-07
-5.10628e-06
5.73492e-07
-5.1761e-06
4.19357e-07
-5.21018e-06
2.66749e-07
-5.20634e-06
1.10904e-07
-5.16757e-06
-4.86169e-08
-5.08923e-06
-2.09839e-07
-4.9706e-06
-3.83371e-07
-4.80836e-06
-5.73348e-07
-4.59665e-06
-7.81803e-07
-4.33047e-06
-1.01227e-06
-3.99706e-06
-1.26228e-06
-3.5809e-06
-1.52162e-06
-3.0733e-06
-1.76425e-06
-2.47305e-06
-1.93322e-06
-1.80295e-06
-1.96381e-06
-1.11417e-06
-1.76943e-06
-4.81765e-07
-1.28282e-06
-7.02461e-08
-4.55497e-07
3.92557e-08
1.722e-07
2.76145e-08
4.00855e-07
3.28365e-07
1.49786e-07
-5.48853e-07
2.00531e-07
-4.64234e-07
1.60441e-07
-2.08339e-07
4.86195e-08
5.98474e-08
-1.42818e-07
2.98328e-07
-4.42845e-07
5.26172e-07
-8.77174e-07
7.81942e-07
-1.4391e-06
1.08449e-06
-2.07538e-06
1.40166e-06
-2.70413e-06
1.66406e-06
-3.24915e-06
1.81066e-06
-3.68683e-06
1.84445e-06
-4.02385e-06
1.79936e-06
-4.28151e-06
1.69282e-06
-4.48558e-06
1.5443e-06
-4.64743e-06
1.36977e-06
-4.77883e-06
1.18704e-06
-4.88867e-06
1.00313e-06
-4.9773e-06
8.20947e-07
-5.04088e-06
6.37072e-07
-5.08046e-06
4.58942e-07
-5.09389e-06
2.8018e-07
-5.08338e-06
1.0039e-07
-5.04984e-06
-8.21559e-08
-4.99097e-06
-2.68714e-07
-4.90391e-06
-4.70428e-07
-4.78654e-06
-6.9072e-07
-4.63464e-06
-9.33702e-07
-4.4457e-06
-1.20121e-06
-4.21517e-06
-1.49281e-06
-3.93786e-06
-1.79893e-06
-3.59864e-06
-2.10347e-06
-3.15836e-06
-2.37351e-06
-2.59188e-06
-2.5303e-06
-1.90713e-06
-2.45418e-06
-1.155e-06
-2.03495e-06
-4.41475e-07
-1.16902e-06
-1.16749e-07
-1.52526e-07
-1.87821e-08
3.02888e-07
3.09583e-07
7.19323e-08
-6.20785e-07
1.99799e-08
-4.12282e-07
-1.18308e-07
-7.00513e-08
-3.33721e-07
2.75261e-07
-6.47414e-07
6.12021e-07
-1.07824e-06
9.57e-07
-1.6193e-06
1.323e-06
-2.22075e-06
1.68594e-06
-2.80311e-06
1.98402e-06
-3.29133e-06
2.15228e-06
-3.66806e-06
2.18739e-06
-3.95707e-06
2.13346e-06
-4.17369e-06
2.01598e-06
-4.33685e-06
1.85598e-06
-4.46479e-06
1.67224e-06
-4.56897e-06
1.47395e-06
-4.64919e-06
1.26725e-06
-4.70516e-06
1.05911e-06
-4.73734e-06
8.53124e-07
-4.75328e-06
6.5301e-07
-4.75467e-06
4.60331e-07
-4.74434e-06
2.69846e-07
-4.72317e-06
7.92218e-08
-4.6908e-06
-1.14528e-07
-4.64388e-06
-3.15633e-07
-4.58297e-06
-5.31335e-07
-4.50723e-06
-7.66464e-07
-4.41468e-06
-1.02625e-06
-4.30139e-06
-1.3145e-06
-4.16162e-06
-1.63259e-06
-3.98575e-06
-1.97479e-06
-3.7649e-06
-2.32432e-06
-3.48185e-06
-2.65656e-06
-3.09711e-06
-2.91503e-06
-2.54468e-06
-3.00661e-06
-1.80992e-06
-2.76971e-06
-9.0915e-07
-2.06979e-06
-2.12294e-07
-8.49382e-07
-1.0273e-08
1.00867e-07
2.9931e-07
-4.45528e-08
-5.76233e-07
-2.00209e-07
-2.56626e-07
-4.31521e-07
1.6126e-07
-7.45034e-07
5.88775e-07
-1.15588e-06
1.02287e-06
-1.65754e-06
1.45865e-06
-2.21084e-06
1.8763e-06
-2.74899e-06
2.22408e-06
-3.2001e-06
2.43514e-06
-3.53781e-06
2.48998e-06
-3.78875e-06
2.43834e-06
-3.97431e-06
2.31901e-06
-4.10897e-06
2.15064e-06
-4.20568e-06
1.9527e-06
-4.2688e-06
1.73537e-06
-4.30502e-06
1.51016e-06
-4.32155e-06
1.28378e-06
-4.32519e-06
1.06275e-06
-4.32126e-06
8.49193e-07
-4.31118e-06
6.42932e-07
-4.29362e-06
4.4277e-07
-4.26973e-06
2.45952e-07
-4.24015e-06
4.96485e-08
-4.20485e-06
-1.49826e-07
-4.16351e-06
-3.5698e-07
-4.11742e-06
-5.77418e-07
-4.06729e-06
-8.166e-07
-4.01323e-06
-1.0803e-06
-3.9541e-06
-1.37363e-06
-3.88672e-06
-1.69997e-06
-3.8033e-06
-2.05822e-06
-3.68826e-06
-2.43936e-06
-3.52412e-06
-2.8207e-06
-3.28291e-06
-3.15623e-06
-2.91198e-06
-3.37754e-06
-2.32538e-06
-3.35631e-06
-1.47613e-06
-2.91903e-06
-4.87877e-07
-1.83764e-06
-3.40278e-08
-3.52982e-07
2.65282e-07
-1.57576e-07
-4.18656e-07
-4.16514e-07
2.31209e-09
-7.28308e-07
4.73055e-07
-1.11784e-06
9.78301e-07
-1.58122e-06
1.48626e-06
-2.08878e-06
1.96621e-06
-2.58856e-06
2.37609e-06
-3.01515e-06
2.65067e-06
-3.32954e-06
2.74954e-06
-3.55294e-06
2.71338e-06
-3.71203e-06
2.59742e-06
-3.81828e-06
2.42526e-06
-3.88336e-06
2.21573e-06
-3.91636e-06
1.9857e-06
-3.92665e-06
1.74565e-06
-3.92193e-06
1.50544e-06
-3.90824e-06
1.2701e-06
-3.8889e-06
1.0434e-06
-3.86532e-06
8.25613e-07
-3.83823e-06
6.15845e-07
-3.80788e-06
4.12424e-07
-3.77468e-06
2.1275e-07
-3.73917e-06
1.41339e-08
-3.7016e-06
-1.87394e-07
-3.66281e-06
-3.95771e-07
-3.6242e-06
-6.16028e-07
-3.58727e-06
-8.53533e-07
-3.55342e-06
-1.11414e-06
-3.52336e-06
-1.4037e-06
-3.49614e-06
-1.72718e-06
-3.4674e-06
-2.08696e-06
-3.42718e-06
-2.47959e-06
-3.35726e-06
-2.89061e-06
-3.22582e-06
-3.28768e-06
-2.99249e-06
-3.61087e-06
-2.58887e-06
-3.75993e-06
-1.93138e-06
-3.57652e-06
-9.25313e-07
-2.84371e-06
-1.14829e-07
-1.16347e-06
1.50453e-07
-2.5897e-07
-1.59686e-07
-5.87094e-07
3.30435e-07
-9.68457e-07
8.54418e-07
-1.40241e-06
1.41225e-06
-1.87245e-06
1.95629e-06
-2.34193e-06
2.43569e-06
-2.75606e-06
2.79022e-06
-3.06413e-06
2.95874e-06
-3.2732e-06
2.9586e-06
-3.41523e-06
2.85542e-06
-3.50438e-06
2.68657e-06
-3.55114e-06
2.47202e-06
-3.56702e-06
2.23161e-06
-3.5614e-06
1.98008e-06
-3.5426e-06
1.72684e-06
-3.51631e-06
1.47916e-06
-3.48632e-06
1.24011e-06
-3.45424e-06
1.01133e-06
-3.42072e-06
7.92092e-07
-3.38606e-06
5.81177e-07
-3.35032e-06
3.76686e-07
-3.31359e-06
1.7602e-07
-3.27606e-06
-2.33899e-08
-3.23807e-06
-2.25388e-07
-3.20062e-06
-4.33218e-07
-3.16529e-06
-6.51359e-07
-3.13412e-06
-8.8471e-07
-3.1094e-06
-1.13885e-06
-3.09316e-06
-1.41994e-06
-3.08613e-06
-1.73422e-06
-3.0863e-06
-2.08678e-06
-3.08688e-06
-2.479e-06
-3.07318e-06
-2.90431e-06
-3.01851e-06
-3.34235e-06
-2.88174e-06
-3.74764e-06
-2.60937e-06
-4.03231e-06
-2.13618e-06
-4.04971e-06
-1.36218e-06
-3.6177e-06
-3.2488e-07
-2.20077e-06
-1.74428e-07
-3.25361e-07
1.65675e-07
-7.14199e-07
7.19273e-07
-1.1322e-06
1.27241e-06
-1.57517e-06
1.85523e-06
-2.02156e-06
2.40269e-06
-2.43277e-06
2.8469e-06
-2.74933e-06
3.10678e-06
-2.96127e-06
3.17069e-06
-3.09885e-06
3.09617e-06
-3.1821e-06
2.93866e-06
-3.22199e-06
2.72647e-06
-3.2299e-06
2.47993e-06
-3.21671e-06
2.21842e-06
-3.19061e-06
1.95397e-06
-3.15792e-06
1.69415e-06
-3.12243e-06
1.44367e-06
-3.08631e-06
1.20399e-06
-3.05037e-06
9.75389e-07
-3.01488e-06
7.56602e-07
-2.97963e-06
5.45927e-07
-2.9442e-06
3.41262e-07
-2.90827e-06
1.40087e-07
-2.87144e-06
-6.02154e-08
-2.83417e-06
-2.62667e-07
-2.79715e-06
-4.70235e-07
-2.76194e-06
-6.86569e-07
-2.73081e-06
-9.15843e-07
-2.70661e-06
-1.16305e-06
-2.6924e-06
-1.43416e-06
-2.69053e-06
-1.73608e-06
-2.70137e-06
-2.07595e-06
-2.72109e-06
-2.45928e-06
-2.73882e-06
-2.88658e-06
-2.733e-06
-3.34817e-06
-2.66661e-06
-3.81404e-06
-2.48755e-06
-4.21137e-06
-2.16002e-06
-4.37724e-06
-1.60355e-06
-4.17417e-06
-5.98906e-07
-3.20541e-06
-7.73334e-07
-3.65866e-07
5.31541e-07
-7.85185e-07
1.13859e-06
-1.21331e-06
1.70054e-06
-1.64198e-06
2.2839e-06
-2.05049e-06
2.81119e-06
-2.38711e-06
3.18352e-06
-2.61723e-06
3.3369e-06
-2.76548e-06
3.31894e-06
-2.8534e-06
3.18409e-06
-2.89635e-06
2.98161e-06
-2.90513e-06
2.73525e-06
-2.8913e-06
2.4661e-06
-2.86408e-06
2.1912e-06
-2.82993e-06
1.91982e-06
-2.79339e-06
1.65761e-06
-2.75696e-06
1.40724e-06
-2.72195e-06
1.16897e-06
-2.68856e-06
9.42005e-07
-2.65653e-06
7.24564e-07
-2.62511e-06
5.14513e-07
-2.59347e-06
3.09624e-07
-2.56091e-06
1.07524e-07
-2.52687e-06
-9.42583e-08
-2.49143e-06
-2.98103e-07
-2.45512e-06
-5.06542e-07
-2.41921e-06
-7.22479e-07
-2.3858e-06
-9.49253e-07
-2.35781e-06
-1.19104e-06
-2.33874e-06
-1.45323e-06
-2.33205e-06
-1.74277e-06
-2.33992e-06
-2.06808e-06
-2.36124e-06
-2.43797e-06
-2.38899e-06
-2.85883e-06
-2.40729e-06
-3.32987e-06
-2.38591e-06
-3.83541e-06
-2.27382e-06
-4.32346e-06
-2.02661e-06
-4.62444e-06
-1.59392e-06
-4.60686e-06
-8.51158e-07
-3.94818e-06
-1.62449e-06
-3.81213e-07
9.12753e-07
-8.04845e-07
1.56222e-06
-1.22225e-06
2.11794e-06
-1.62191e-06
2.68356e-06
-1.97935e-06
3.16863e-06
-2.23931e-06
3.44348e-06
-2.41108e-06
3.50867e-06
-2.51575e-06
3.42361e-06
-2.57031e-06
3.23866e-06
-2.58815e-06
2.99944e-06
-2.58015e-06
2.72725e-06
-2.55686e-06
2.44281e-06
-2.52558e-06
2.15992e-06
-2.49135e-06
1.8856e-06
-2.45744e-06
1.6237e-06
-2.42545e-06
1.37525e-06
-2.39593e-06
1.13946e-06
-2.36855e-06
9.14617e-07
-2.34249e-06
6.98512e-07
-2.31675e-06
4.88769e-07
-2.29028e-06
2.83149e-07
-2.26221e-06
7.94588e-08
-2.23196e-06
-1.2451e-07
-2.19932e-06
-3.30739e-07
-2.16459e-06
-5.41279e-07
-2.12866e-06
-7.58407e-07
-2.09322e-06
-9.84689e-07
-2.06085e-06
-1.22341e-06
-2.03499e-06
-1.47909e-06
-2.01961e-06
-1.75816e-06
-2.01817e-06
-2.06951e-06
-2.03186e-06
-2.42428e-06
-2.05694e-06
-2.83375e-06
-2.08225e-06
-3.30456e-06
-2.0853e-06
-3.83236e-06
-2.02113e-06
-4.38764e-06
-1.81733e-06
-4.82824e-06
-1.47148e-06
-4.95271e-06
-8.98122e-07
-4.52153e-06
-2.52261e-06
-3.72526e-07
1.28528e-06
-7.80776e-07
1.97047e-06
-1.17182e-06
2.50898e-06
-1.534e-06
3.04574e-06
-1.83153e-06
3.46617e-06
-2.03306e-06
3.645e-06
-2.16544e-06
3.64105e-06
-2.23947e-06
3.49765e-06
-2.27288e-06
3.27206e-06
-2.27702e-06
3.00359e-06
-2.26228e-06
2.71251e-06
-2.23747e-06
2.41799e-06
-2.20835e-06
2.13081e-06
-2.17885e-06
1.85609e-06
-2.15119e-06
1.59604e-06
-2.12624e-06
1.35029e-06
-2.10389e-06
1.11711e-06
-2.0834e-06
8.94128e-07
-2.06373e-06
6.78842e-07
-2.04377e-06
4.68814e-07
-2.0225e-06
2.61878e-07
-1.99907e-06
5.60261e-08
-1.97289e-06
-1.50689e-07
-1.94364e-06
-3.59982e-07
-1.9114e-06
-5.73528e-07
-1.87668e-06
-7.93119e-07
-1.84067e-06
-1.0207e-06
-1.80532e-06
-1.25876e-06
-1.77356e-06
-1.51084e-06
-1.74925e-06
-1.78247e-06
-1.73657e-06
-2.08219e-06
-1.73846e-06
-2.42238e-06
-1.75403e-06
-2.81818e-06
-1.77557e-06
-3.28302e-06
-1.7864e-06
-3.82153e-06
-1.75517e-06
-4.41887e-06
-1.5977e-06
-4.98571e-06
-1.31111e-06
-5.23931e-06
-8.0406e-07
-5.02858e-06
-3.32667e-06
-3.45278e-07
1.63056e-06
-7.2417e-07
2.34937e-06
-1.07974e-06
2.86455e-06
-1.39788e-06
3.36388e-06
-1.63611e-06
3.70441e-06
-1.79828e-06
3.80717e-06
-1.90054e-06
3.74331e-06
-1.95465e-06
3.55176e-06
-1.97587e-06
3.29328e-06
-1.97423e-06
3.00195e-06
-1.95907e-06
2.69735e-06
-1.93747e-06
2.39639e-06
-1.91395e-06
2.10729e-06
-1.89144e-06
1.83358e-06
-1.87133e-06
1.57594e-06
-1.85387e-06
1.33283e-06
-1.83853e-06
1.10177e-06
-1.8244e-06
8.79993e-07
-1.81041e-06
6.64853e-07
-1.79555e-06
4.53961e-07
-1.77893e-06
2.45257e-07
-1.75981e-06
3.69029e-08
-1.73766e-06
-1.72842e-07
-1.71213e-06
-3.85509e-07
-1.68313e-06
-6.0253e-07
-1.65089e-06
-8.25358e-07
-1.6161e-06
-1.0555e-06
-1.58007e-06
-1.29479e-06
-1.545e-06
-1.5459e-06
-1.51419e-06
-1.81328e-06
-1.49184e-06
-2.10454e-06
-1.48209e-06
-2.43213e-06
-1.48657e-06
-2.81371e-06
-1.50067e-06
-3.26892e-06
-1.51147e-06
-3.81073e-06
-1.49462e-06
-4.43572e-06
-1.38399e-06
-5.09634e-06
-1.12931e-06
-5.49399e-06
-7.03792e-07
-5.4541e-06
-4.03047e-06
-3.05508e-07
1.93607e-06
-6.45784e-07
2.68964e-06
-9.59832e-07
3.1786e-06
-1.22909e-06
3.63314e-06
-1.41796e-06
3.89327e-06
-1.55041e-06
3.93962e-06
-1.63091e-06
3.82382e-06
-1.67247e-06
3.59332e-06
-1.68765e-06
3.30845e-06
-1.68524e-06
2.99954e-06
-1.67324e-06
2.68535e-06
-1.6572e-06
2.38035e-06
-1.64063e-06
2.09072e-06
-1.62557e-06
1.81853e-06
-1.61276e-06
1.56313e-06
-1.60202e-06
1.32209e-06
-1.59266e-06
1.09241e-06
-1.58378e-06
8.7111e-07
-1.57445e-06
6.55521e-07
-1.56383e-06
4.43348e-07
-1.55122e-06
2.32641e-07
-1.536e-06
2.16891e-08
-1.51775e-06
-1.91096e-07
-1.49612e-06
-4.07139e-07
-1.47091e-06
-6.27735e-07
-1.44214e-06
-8.54132e-07
-1.41009e-06
-1.08755e-06
-1.37553e-06
-1.32935e-06
-1.33994e-06
-1.5815e-06
-1.30582e-06
-1.8474e-06
-1.27693e-06
-2.13343e-06
-1.25785e-06
-2.45121e-06
-1.25205e-06
-2.81951e-06
-1.25814e-06
-3.26284e-06
-1.26633e-06
-3.80253e-06
-1.25611e-06
-4.44594e-06
-1.18692e-06
-5.16552e-06
-9.62076e-07
-5.71884e-06
-5.98634e-07
-5.81754e-06
-4.6291e-06
-2.58663e-07
2.19473e-06
-5.52949e-07
2.98393e-06
-8.21311e-07
3.44696e-06
-1.04127e-06
3.85309e-06
-1.19398e-06
4.04599e-06
-1.30205e-06
4.04769e-06
-1.36588e-06
3.88764e-06
-1.39934e-06
3.62679e-06
-1.41219e-06
3.3213e-06
-1.41177e-06
2.99912e-06
-1.40457e-06
2.67815e-06
-1.39482e-06
2.3706e-06
-1.38515e-06
2.08104e-06
-1.37689e-06
1.81026e-06
-1.37031e-06
1.55655e-06
-1.36504e-06
1.31683e-06
-1.36041e-06
1.08778e-06
-1.35563e-06
8.66335e-07
-1.35e-06
6.49886e-07
-1.34288e-06
4.36227e-07
-1.33373e-06
2.23497e-07
-1.32211e-06
1.00661e-08
-1.30766e-06
-2.05549e-07
-1.29006e-06
-4.24735e-07
-1.26907e-06
-6.48731e-07
-1.24452e-06
-8.78683e-07
-1.21642e-06
-1.11564e-06
-1.18511e-06
-1.36066e-06
-1.15145e-06
-1.61516e-06
-1.1172e-06
-1.88164e-06
-1.08543e-06
-2.16521e-06
-1.06054e-06
-2.47611e-06
-1.04716e-06
-2.83289e-06
-1.04664e-06
-3.26336e-06
-1.05177e-06
-3.7974e-06
-1.04533e-06
-4.45238e-06
-9.97818e-07
-5.21304e-06
-8.17441e-07
-5.89921e-06
-5.145e-07
-6.12048e-06
-5.1436e-06
-2.05791e-07
2.40052e-06
-4.51311e-07
3.22945e-06
-6.74303e-07
3.66995e-06
-8.49215e-07
4.02801e-06
-9.72139e-07
4.16891e-06
-1.05812e-06
4.13367e-06
-1.10969e-06
3.9392e-06
-1.13801e-06
3.65511e-06
-1.15057e-06
3.33385e-06
-1.1533e-06
3.00185e-06
-1.15124e-06
2.67609e-06
-1.14748e-06
2.36685e-06
-1.14388e-06
2.07744e-06
-1.14124e-06
1.80763e-06
-1.13958e-06
1.55489e-06
-1.1385e-06
1.31574e-06
-1.13742e-06
1.0867e-06
-1.13579e-06
8.647e-07
-1.13309e-06
6.47184e-07
-1.12889e-06
4.32032e-07
-1.12284e-06
2.17444e-07
-1.11459e-06
1.81483e-09
-1.10388e-06
-2.16253e-07
-1.09044e-06
-4.38181e-07
-1.07397e-06
-6.652e-07
-1.05422e-06
-8.98436e-07
-1.03099e-06
-1.13887e-06
-1.00428e-06
-1.38737e-06
-9.74513e-07
-1.64493e-06
-9.42838e-07
-1.91332e-06
-9.11637e-07
-2.19641e-06
-8.8489e-07
-2.50285e-06
-8.67729e-07
-2.85005e-06
-8.636e-07
-3.26749e-06
-8.68445e-07
-3.79255e-06
-8.68566e-07
-4.45226e-06
-8.4001e-07
-5.24159e-06
-6.97013e-07
-6.04221e-06
-4.33392e-07
-6.3841e-06
-5.57699e-06
-1.52987e-07
2.55351e-06
-3.47661e-07
3.42412e-06
-5.25386e-07
3.84768e-06
-6.59029e-07
4.16165e-06
-7.55181e-07
4.26507e-06
-8.22151e-07
4.20064e-06
-8.64025e-07
3.98108e-06
-8.88852e-07
3.67994e-06
-9.02021e-07
3.34702e-06
-9.08094e-07
3.00793e-06
-9.10733e-07
2.67873e-06
-9.12097e-07
2.36821e-06
-9.1341e-07
2.07875e-06
-9.15106e-07
1.80932e-06
-9.17097e-07
1.55688e-06
-9.19056e-07
1.3177e-06
-9.20592e-07
1.08824e-06
-9.21344e-07
8.65453e-07
-9.21007e-07
6.46848e-07
-9.1933e-07
4.30355e-07
-9.16089e-07
2.14203e-07
-9.11092e-07
-3.18274e-09
-9.04105e-07
-2.2324e-07
-8.94908e-07
-4.47377e-07
-8.83216e-07
-6.76892e-07
-8.68702e-07
-9.1295e-07
-8.51037e-07
-1.15653e-06
-8.29989e-07
-1.40842e-06
-8.05614e-07
-1.66931e-06
-7.78584e-07
-1.94035e-06
-7.50662e-07
-2.22433e-06
-7.25264e-07
-2.52825e-06
-7.07562e-07
-2.86775e-06
-7.02538e-07
-3.27251e-06
-7.09292e-07
-3.7858e-06
-7.16084e-07
-4.44546e-06
-6.98735e-07
-5.25894e-06
-5.99353e-07
-6.14159e-06
-3.79184e-07
-6.60427e-06
-5.95618e-06
-9.69494e-08
2.65046e-06
-2.43142e-07
3.57031e-06
-3.76562e-07
3.98109e-06
-4.73507e-07
4.25859e-06
-5.4546e-07
4.33702e-06
-5.95553e-07
4.25074e-06
-6.28978e-07
4.0145e-06
-6.50925e-07
3.70189e-06
-6.64814e-07
3.36091e-06
-6.73805e-07
3.01692e-06
-6.80324e-07
2.68525e-06
-6.8573e-07
2.37362e-06
-6.90748e-07
2.08377e-06
-6.95582e-07
1.81416e-06
-7.00141e-07
1.56144e-06
-7.04227e-07
1.32179e-06
-7.07641e-07
1.09165e-06
-7.10218e-07
8.68029e-07
-7.11831e-07
6.48462e-07
-7.12382e-07
4.30905e-07
-7.11775e-07
2.13597e-07
-7.09906e-07
-5.0518e-09
-7.0663e-07
-2.26517e-07
-7.01761e-07
-4.52246e-07
-6.95032e-07
-6.83621e-07
-6.86094e-07
-9.21888e-07
-6.74538e-07
-1.16809e-06
-6.59974e-07
-1.42298e-06
-6.42209e-07
-1.68707e-06
-6.21541e-07
-1.96101e-06
-5.99225e-07
-2.24664e-06
-5.7808e-07
-2.54939e-06
-5.62968e-07
-2.88286e-06
-5.59815e-07
-3.27567e-06
-5.70697e-07
-3.77492e-06
-5.86175e-07
-4.42999e-06
-5.82029e-07
-5.26309e-06
-5.13819e-07
-6.2098e-06
-3.28831e-07
-6.78926e-06
-6.28501e-06
-4.63275e-08
2.69678e-06
-1.41313e-07
3.6653e-06
-2.30607e-07
4.07039e-06
-2.9441e-07
4.3224e-06
-3.43494e-07
4.3861e-06
-3.78006e-07
4.28525e-06
-4.03527e-07
4.04002e-06
-4.22564e-07
3.72093e-06
-4.36765e-07
3.37511e-06
-4.47926e-07
3.02808e-06
-4.5735e-07
2.69467e-06
-4.65711e-07
2.38198e-06
-4.73339e-07
2.0914e-06
-4.80305e-07
1.82112e-06
-4.86567e-07
1.5677e-06
-4.92076e-07
1.3273e-06
-4.96816e-07
1.09639e-06
-5.008e-07
8.72013e-07
-5.04058e-07
6.5172e-07
-5.06622e-07
4.33469e-07
-5.08503e-07
2.15478e-07
-5.09683e-07
-3.87221e-09
-5.10089e-07
-2.2611e-07
-5.09585e-07
-4.5275e-07
-5.07941e-07
-6.85265e-07
-5.04816e-07
-9.25013e-07
-4.99769e-07
-1.17314e-06
-4.92323e-07
-1.43043e-06
-4.82112e-07
-1.69728e-06
-4.69155e-07
-1.97397e-06
-4.54297e-07
-2.2615e-06
-4.3982e-07
-2.56387e-06
-4.30121e-07
-2.89256e-06
-4.31474e-07
-3.27431e-06
-4.48102e-07
-3.75829e-06
-4.72965e-07
-4.40512e-06
-4.84644e-07
-5.25141e-06
-4.45028e-07
-6.24942e-06
-2.92873e-07
-6.94141e-06
-6.57788e-06
9.76111e-09
2.68702e-06
-3.89373e-08
3.714e-06
-8.83755e-08
4.11983e-06
-1.2241e-07
4.35643e-06
-1.48939e-07
4.41263e-06
-1.6867e-07
4.30498e-06
-1.8611e-07
4.05746e-06
-2.01701e-07
3.73652e-06
-2.15508e-07
3.38892e-06
-2.27971e-07
3.04054e-06
-2.39323e-07
2.70602e-06
-2.49656e-07
2.39231e-06
-2.5898e-07
2.10072e-06
-2.67273e-07
1.82942e-06
-2.74568e-07
1.57499e-06
-2.80966e-07
1.33369e-06
-2.86619e-07
1.10204e-06
-2.91699e-07
8.77093e-07
-2.96371e-07
6.56392e-07
-3.00778e-07
4.37875e-07
-3.05027e-07
2.19727e-07
-3.09175e-07
2.75294e-10
-3.13219e-07
-2.22066e-07
-3.17079e-07
-4.4889e-07
-3.20574e-07
-6.8177e-07
-3.23405e-07
-9.22183e-07
-3.25148e-07
-1.17139e-06
-3.25301e-07
-1.43027e-06
-3.23394e-07
-1.69919e-06
-3.19246e-07
-1.97812e-06
-3.13362e-07
-2.26739e-06
-3.07546e-07
-2.56969e-06
-3.05681e-07
-2.89443e-06
-3.13998e-07
-3.266e-06
-3.38185e-07
-3.7341e-06
-3.73832e-07
-4.36948e-06
-4.01476e-07
-5.22377e-06
-3.85371e-07
-6.26552e-06
-2.60245e-07
-7.06654e-06
-6.83813e-06
6.04636e-08
2.62656e-06
6.03359e-08
3.71413e-06
4.88571e-08
4.13131e-06
4.30068e-08
4.36228e-06
3.89941e-08
4.41664e-06
3.32656e-08
4.31071e-06
2.46923e-08
4.06604e-06
1.34879e-08
3.74772e-06
1.03356e-09
3.40138e-06
-1.16267e-08
3.0532e-06
-2.39492e-08
2.71835e-06
-3.53934e-08
2.40376e-06
-4.56538e-08
2.11098e-06
-5.46462e-08
1.83841e-06
-6.24744e-08
1.58282e-06
-6.93719e-08
1.34059e-06
-7.56358e-08
1.10831e-06
-8.15747e-08
8.83032e-07
-8.74742e-08
6.62292e-07
-9.35786e-08
4.4398e-07
-1.00081e-07
2.2623e-07
-1.07115e-07
7.30927e-09
-1.14741e-07
-2.1444e-07
-1.22935e-07
-4.40695e-07
-1.31576e-07
-6.73129e-07
-1.40424e-07
-9.13334e-07
-1.49121e-07
-1.16269e-06
-1.57209e-07
-1.42219e-06
-1.64218e-07
-1.69218e-06
-1.6976e-07
-1.97258e-06
-1.74133e-07
-2.26301e-06
-1.78667e-07
-2.56515e-06
-1.86692e-07
-2.8864e-06
-2.0412e-07
-3.24857e-06
-2.37545e-07
-3.70068e-06
-2.85301e-07
-4.32172e-06
-3.29697e-07
-5.17937e-06
-3.37329e-07
-6.25789e-06
-2.35867e-07
-7.168e-06
-7.07399e-06
1.11759e-07
2.5148e-06
1.57629e-07
3.66826e-06
1.82965e-07
4.10597e-06
2.06012e-07
4.33923e-06
2.2536e-07
4.3973e-06
2.34159e-07
4.30191e-06
2.32892e-07
4.0673e-06
2.25994e-07
3.75462e-06
2.15493e-07
3.41188e-06
2.03264e-07
3.06543e-06
1.90782e-07
2.73083e-06
1.79007e-07
2.41553e-06
1.68448e-07
2.12154e-06
1.59251e-07
1.84761e-06
1.51272e-07
1.5908e-06
1.44182e-07
1.34768e-06
1.37561e-07
1.11493e-06
1.30977e-07
8.89616e-07
1.24032e-07
6.69237e-07
1.16382e-07
4.51629e-07
1.07753e-07
2.3486e-07
9.79368e-08
1.71252e-08
8.68125e-08
-2.03316e-07
7.43394e-08
-4.28222e-07
6.05721e-08
-6.59362e-07
4.5669e-08
-8.98431e-07
2.99065e-08
-1.14693e-06
1.3678e-08
-1.40596e-06
-2.55539e-09
-1.67595e-06
-1.86567e-08
-1.95648e-06
-3.44423e-08
-2.24723e-06
-5.08442e-08
-2.54875e-06
-7.06084e-08
-2.86664e-06
-9.91753e-08
-3.22e-06
-1.4357e-07
-3.65628e-06
-2.04325e-07
-4.26096e-06
-2.64909e-07
-5.11879e-06
-2.94676e-07
-6.22812e-06
-2.14122e-07
-7.24855e-06
-7.28811e-06
1.62682e-07
2.35212e-06
2.53293e-07
3.57764e-06
3.1289e-07
4.04637e-06
3.62597e-07
4.28953e-06
4.04147e-07
4.35575e-06
4.2928e-07
4.27678e-06
4.37228e-07
4.05936e-06
4.36231e-07
3.75562e-06
4.29038e-07
3.41907e-06
4.18491e-07
3.07598e-06
4.06783e-07
2.74254e-06
3.95376e-07
2.42694e-06
3.85061e-07
2.13186e-06
3.76089e-07
1.85658e-06
3.68311e-07
1.59858e-06
3.61319e-07
1.35467e-06
3.54587e-07
1.12166e-06
3.47572e-07
8.96631e-07
3.3977e-07
6.7704e-07
3.30744e-07
4.60655e-07
3.20137e-07
2.45467e-07
3.07672e-07
2.959e-08
2.93165e-07
-1.88809e-07
2.76509e-07
-4.11566e-07
2.5767e-07
-6.40524e-07
2.36703e-07
-8.77463e-07
2.13752e-07
-1.12398e-06
1.89054e-07
-1.38126e-06
1.62913e-07
-1.64981e-06
1.3576e-07
-1.92932e-06
1.07629e-07
-2.2191e-06
7.80358e-08
-2.51916e-06
4.48771e-08
-2.83348e-06
3.26704e-09
-3.17839e-06
-5.39688e-08
-3.59905e-06
-1.29138e-07
-4.1858e-06
-2.06375e-07
-5.04155e-06
-2.55596e-07
-6.1789e-06
-1.98554e-07
-7.3056e-06
-7.48667e-06
2.11471e-07
2.14065e-06
3.46382e-07
3.44273e-06
4.39329e-07
3.95343e-06
5.15206e-07
4.21365e-06
5.76608e-07
4.29435e-06
6.19672e-07
4.23371e-06
6.39035e-07
4.03999e-06
6.45462e-07
3.74919e-06
6.43022e-07
3.42151e-06
6.35421e-07
3.08358e-06
6.25551e-07
2.75241e-06
6.15363e-07
2.43713e-06
6.0595e-07
2.14127e-06
5.97703e-07
1.86483e-06
5.90498e-07
1.60578e-06
5.83892e-07
1.36128e-06
5.77287e-07
1.12827e-06
5.70049e-07
9.03869e-07
5.61581e-07
6.85508e-07
5.51359e-07
4.70877e-07
5.38945e-07
2.5788e-07
5.23991e-07
4.4544e-08
5.06239e-07
-1.71056e-07
4.85504e-07
-3.90831e-07
4.61651e-07
-6.1667e-07
4.34608e-07
-8.5042e-07
4.0437e-07
-1.09374e-06
3.71015e-07
-1.3479e-06
3.34704e-07
-1.6135e-06
2.95696e-07
-1.89031e-06
2.54196e-07
-2.1776e-06
2.10043e-07
-2.475e-06
1.61803e-07
-2.78524e-06
1.05308e-07
-3.12189e-06
3.33622e-08
-3.5271e-06
-5.76624e-08
-4.09477e-06
-1.52694e-07
-4.94652e-06
-2.18599e-07
-6.113e-06
-1.85708e-07
-7.33849e-06
-7.67238e-06
2.57621e-07
1.88303e-06
4.3542e-07
3.26494e-06
5.60795e-07
3.82805e-06
6.62583e-07
4.11186e-06
7.43155e-07
4.21377e-06
8.04615e-07
4.17225e-06
8.38338e-07
4.00627e-06
8.54092e-07
3.73343e-06
8.58126e-07
3.41748e-06
8.55061e-07
3.08664e-06
8.48388e-07
2.75908e-06
8.40508e-07
2.44501e-06
8.32821e-07
2.14896e-06
8.25905e-07
1.87174e-06
8.19725e-07
1.61196e-06
8.13856e-07
1.36715e-06
8.07665e-07
1.13446e-06
8.00454e-07
9.1108e-07
7.91548e-07
6.94414e-07
7.8034e-07
4.82085e-07
7.66311e-07
2.71909e-07
7.49035e-07
6.18202e-08
7.2817e-07
-1.50192e-07
7.03433e-07
-3.66094e-07
6.74575e-07
-5.87813e-07
6.41389e-07
-8.17234e-07
6.03694e-07
-1.05605e-06
5.61362e-07
-1.30557e-06
5.14372e-07
-1.56651e-06
4.62851e-07
-1.83879e-06
4.07035e-07
-2.12178e-06
3.47044e-07
-2.41501e-06
2.82122e-07
-2.72032e-06
2.0893e-07
-3.0487e-06
1.20331e-07
-3.4385e-06
1.10199e-08
-3.98546e-06
-1.03458e-07
-4.83204e-06
-1.87535e-07
-6.02892e-06
-1.7418e-07
-7.35184e-06
-7.84656e-06
2.98888e-07
1.58414e-06
5.17677e-07
3.04615e-06
6.7455e-07
3.67118e-06
8.00744e-07
3.98567e-06
9.02755e-07
4.11176e-06
9.82738e-07
4.09227e-06
1.03381e-06
3.9552e-06
1.06153e-06
3.70572e-06
1.07434e-06
3.40467e-06
1.07784e-06
3.08314e-06
1.07611e-06
2.76081e-06
1.07197e-06
2.44915e-06
1.06714e-06
2.15379e-06
1.06242e-06
1.87646e-06
1.05793e-06
1.61646e-06
1.05331e-06
1.37177e-06
1.04794e-06
1.13983e-06
1.04109e-06
9.17925e-07
1.03204e-06
7.03467e-07
1.0201e-06
4.94026e-07
1.00467e-06
2.87339e-07
9.85242e-07
8.12472e-08
9.6138e-07
-1.2633e-07
9.32676e-07
-3.3739e-07
8.98754e-07
-5.53891e-07
8.5926e-07
-7.77739e-07
8.13831e-07
-1.01062e-06
7.62124e-07
-1.25386e-06
7.03885e-07
-1.50827e-06
6.39052e-07
-1.77396e-06
5.67853e-07
-2.05058e-06
4.90733e-07
-2.33789e-06
4.07568e-07
-2.63715e-06
3.15848e-07
-2.95698e-06
2.09215e-07
-3.33187e-06
8.15289e-08
-3.85777e-06
-5.43906e-08
-4.69612e-06
-1.57328e-07
-5.92598e-06
-1.63249e-07
-7.34592e-06
-8.00981e-06
3.31242e-07
1.2529e-06
5.87981e-07
2.78941e-06
7.76275e-07
3.48288e-06
9.27382e-07
3.83456e-06
1.05185e-06
3.9873e-06
1.15058e-06
3.99354e-06
1.22192e-06
3.88385e-06
1.26544e-06
3.6622e-06
1.29034e-06
3.37977e-06
1.30324e-06
3.07025e-06
1.30884e-06
2.7552e-06
1.31043e-06
2.44756e-06
1.31006e-06
2.15416e-06
1.3088e-06
1.87771e-06
1.30699e-06
1.61827e-06
1.30437e-06
1.37438e-06
1.30042e-06
1.14378e-06
1.29441e-06
9.23936e-07
1.28559e-06
7.12289e-07
1.27322e-06
5.06393e-07
1.25663e-06
3.03927e-07
1.23523e-06
1.02648e-07
1.20846e-06
-9.95615e-08
1.17578e-06
-3.04711e-07
1.13669e-06
-5.14792e-07
1.09064e-06
-7.31693e-07
1.03708e-06
-9.57062e-07
9.75441e-07
-1.19222e-06
9.05221e-07
-1.43805e-06
8.26179e-07
-1.69492e-06
7.38478e-07
-1.96288e-06
6.42751e-07
-2.24217e-06
5.39507e-07
-2.53391e-06
4.2726e-07
-2.84474e-06
3.00608e-07
-3.20522e-06
1.53892e-07
-3.71106e-06
2.32856e-09
-4.54456e-06
-1.22203e-07
-5.80145e-06
-1.54152e-07
-7.31397e-06
-8.16396e-06
3.46546e-07
9.06349e-07
6.38828e-07
2.49713e-06
8.60874e-07
3.26084e-06
1.03796e-06
3.65748e-06
1.18492e-06
3.84033e-06
1.30531e-06
3.87316e-06
1.39887e-06
3.79029e-06
1.46232e-06
3.59874e-06
1.50349e-06
3.3386e-06
1.52952e-06
3.04422e-06
1.5457e-06
2.73902e-06
1.55576e-06
2.43751e-06
1.56211e-06
2.14781e-06
1.56615e-06
1.87367e-06
1.56844e-06
1.61598e-06
1.56896e-06
1.37386e-06
1.56728e-06
1.14546e-06
1.56277e-06
9.28447e-07
1.55469e-06
7.20368e-07
1.54228e-06
5.18802e-07
1.52481e-06
3.21398e-07
1.50161e-06
1.25845e-07
1.47199e-06
-6.99384e-08
1.43527e-06
-2.67986e-07
1.39078e-06
-4.70308e-07
1.33782e-06
-6.78727e-07
1.27559e-06
-8.94832e-07
1.20329e-06
-1.11993e-06
1.1202e-06
-1.35496e-06
1.02589e-06
-1.60061e-06
9.20433e-07
-1.85742e-06
8.04579e-07
-2.12631e-06
6.79414e-07
-2.40874e-06
5.44582e-07
-2.7099e-06
3.95472e-07
-3.05611e-06
2.26011e-07
-3.5416e-06
4.71667e-08
-4.36571e-06
-9.74568e-08
-5.65683e-06
-1.46384e-07
-7.26504e-06
-8.31034e-06
3.31814e-07
5.74535e-07
6.61026e-07
2.16791e-06
9.20649e-07
3.00121e-06
1.12608e-06
3.45204e-06
1.29655e-06
3.66986e-06
1.44083e-06
3.72888e-06
1.55898e-06
3.67214e-06
1.64696e-06
3.51077e-06
1.70952e-06
3.27604e-06
1.75346e-06
3.00028e-06
1.78445e-06
2.70802e-06
1.80664e-06
2.41533e-06
1.8228e-06
2.13165e-06
1.83466e-06
1.86181e-06
1.8431e-06
1.60754e-06
1.84835e-06
1.36862e-06
1.85019e-06
1.14362e-06
1.84812e-06
9.30516e-07
1.84149e-06
7.27002e-07
1.82953e-06
5.30755e-07
1.81151e-06
3.39418e-07
1.78669e-06
1.5067e-07
1.7542e-06
-3.74481e-08
1.71329e-06
-2.27079e-07
1.66311e-06
-4.20125e-07
1.60272e-06
-6.18338e-07
1.53112e-06
-8.23235e-07
1.44729e-06
-1.0361e-06
1.3503e-06
-1.25796e-06
1.23955e-06
-1.48986e-06
1.11505e-06
-1.73292e-06
9.77625e-07
-1.98889e-06
8.28679e-07
-2.2598e-06
6.69013e-07
-2.55024e-06
4.95231e-07
-2.88233e-06
3.01544e-07
-3.34791e-06
9.84296e-08
-4.1626e-06
-6.93542e-08
-5.48905e-06
-1.37931e-07
-7.19647e-06
-8.44827e-06
2.71472e-07
3.03063e-07
6.50945e-07
1.78844e-06
9.47399e-07
2.70476e-06
1.18335e-06
3.21609e-06
1.37997e-06
3.47325e-06
1.55016e-06
3.55868e-06
1.6959e-06
3.5264e-06
1.81281e-06
3.39386e-06
1.90249e-06
3.18636e-06
1.97011e-06
2.93266e-06
2.02117e-06
2.65696e-06
2.0601e-06
2.37639e-06
2.09005e-06
2.10169e-06
2.1131e-06
1.83876e-06
2.13044e-06
1.5902e-06
2.14262e-06
1.35643e-06
2.14971e-06
1.13653e-06
2.1514e-06
9.28827e-07
2.14717e-06
7.3123e-07
2.13634e-06
5.41582e-07
2.1182e-06
3.57557e-07
2.09196e-06
1.76916e-07
2.05653e-06
-2.01739e-09
2.01125e-06
-1.81799e-07
1.95495e-06
-3.6383e-07
1.88653e-06
-5.49918e-07
1.80477e-06
-7.41473e-07
1.70845e-06
-9.39781e-07
1.59646e-06
-1.14597e-06
1.46812e-06
-1.36152e-06
1.32333e-06
-1.58814e-06
1.16297e-06
-1.82852e-06
9.88554e-07