/*--------------------------------*- C++ -*----------------------------------*\
  =========                 |
  \\      /  F ield         | OpenFOAM: The Open Source CFD Toolbox
   \\    /   O peration     | Website:  https://openfoam.org
    \\  /    A nd           | Version:  12
     \\/     M anipulation  |
\*---------------------------------------------------------------------------*/
FoamFile
{
    format      ascii;
    class       volVectorField;
    location    "5";
    object      U;
}
// * * * * * * * * * * * * * * * * * * * * * * * * * * * * * * * * * * * * * //

dimensions      [0 1 -1 0 0 0 0];

internalField   nonuniform List<vector> 
1600
(
(0.0010782 -0.000952822 0)
(0.00557034 -0.00149861 0)
(0.0100061 -0.00131223 0)
(0.0128316 -0.00039625 0)
(0.0134427 0.000162901 0)
(0.0130979 4.93939e-05 0)
(0.0125248 -0.000497337 0)
(0.0122603 -0.000950636 0)
(0.0118187 -0.0010257 0)
(0.0107158 -0.000880451 0)
(0.00840792 -0.000813563 0)
(0.00310672 -0.000324865 0)
(-0.00668469 0.00118684 0)
(-0.0177934 0.00576953 0)
(-0.0376065 0.0113348 0)
(-0.0617858 0.0125821 0)
(-0.0826259 0.011675 0)
(-0.101472 0.0103795 0)
(-0.116972 0.00882168 0)
(-0.129978 0.00731794 0)
(-0.140102 0.0058237 0)
(-0.147758 0.00439179 0)
(-0.152634 0.00297544 0)
(-0.154828 0.00164016 0)
(-0.154908 -0.000301543 0)
(-0.151275 -0.0019329 0)
(-0.145073 -0.00401883 0)
(-0.134814 -0.00589232 0)
(-0.121275 -0.00803372 0)
(-0.103906 -0.0101901 0)
(-0.083499 -0.0124441 0)
(-0.0600748 -0.0139859 0)
(-0.0350291 -0.014336 0)
(-0.00918198 -0.0130711 0)
(0.0117614 -0.0111441 0)
(0.0273715 -0.00417082 0)
(0.0288646 0.00312627 0)
(0.0228094 0.00493679 0)
(0.0108107 0.00402037 0)
(0.00225501 0.00277664 0)
(0.00196756 -0.00552407 0)
(0.00960441 -0.00835769 0)
(0.01478 -0.00634302 0)
(0.0177251 -0.00279764 0)
(0.0182098 -2.08686e-06 0)
(0.0165178 0.00123324 0)
(0.0132837 0.00134579 0)
(0.00877751 0.00162148 0)
(0.00192792 0.00288771 0)
(-0.0089741 0.00526456 0)
(-0.0247335 0.00963802 0)
(-0.0485018 0.0174005 0)
(-0.0768127 0.0254508 0)
(-0.102838 0.0315012 0)
(-0.124348 0.0327144 0)
(-0.142673 0.0306469 0)
(-0.157936 0.0273553 0)
(-0.170807 0.0234175 0)
(-0.181058 0.0194195 0)
(-0.189218 0.0154643 0)
(-0.195057 0.011626 0)
(-0.198903 0.00785019 0)
(-0.200589 0.00406988 0)
(-0.200242 0.000161558 0)
(-0.197726 -0.00412871 0)
(-0.192896 -0.00865745 0)
(-0.185572 -0.0135464 0)
(-0.175391 -0.0187427 0)
(-0.162142 -0.0242817 0)
(-0.145159 -0.0297605 0)
(-0.124717 -0.034807 0)
(-0.101733 -0.0390314 0)
(-0.0759592 -0.040316 0)
(-0.04904 -0.0376256 0)
(-0.0229682 -0.0298453 0)
(-0.000107496 -0.0142877 0)
(0.0156342 0.00345443 0)
(0.0157359 0.0108791 0)
(0.00930647 0.0131697 0)
(0.00144616 0.00984386 0)
(0.00306588 -0.0126221 0)
(0.0105333 -0.0150026 0)
(0.013508 -0.0101959 0)
(0.0142133 -0.0035593 0)
(0.0122967 0.00156728 0)
(0.0078908 0.00463591 0)
(0.000172727 0.00689896 0)
(-0.011883 0.0108439 0)
(-0.0296913 0.0182138 0)
(-0.0540335 0.0285648 0)
(-0.0816717 0.0391306 0)
(-0.107457 0.0459183 0)
(-0.130113 0.0491962 0)
(-0.148138 0.0494684 0)
(-0.162814 0.0469956 0)
(-0.174678 0.0428637 0)
(-0.184233 0.0377269 0)
(-0.191961 0.0321699 0)
(-0.198036 0.0265193 0)
(-0.202715 0.0209609 0)
(-0.206136 0.0152077 0)
(-0.208171 0.00979553 0)
(-0.208789 0.00428325 0)
(-0.20794 -0.00129289 0)
(-0.205501 -0.00721385 0)
(-0.201543 -0.0135211 0)
(-0.19588 -0.0205588 0)
(-0.188325 -0.0283802 0)
(-0.178656 -0.0371126 0)
(-0.16659 -0.0462693 0)
(-0.151628 -0.0552651 0)
(-0.133142 -0.062623 0)
(-0.111401 -0.066408 0)
(-0.086892 -0.0649251 0)
(-0.0604962 -0.0553818 0)
(-0.0330925 -0.0357407 0)
(-0.00642938 -0.00643805 0)
(0.00185579 0.0109177 0)
(0.00200148 0.017156 0)
(-7.48074e-05 0.0132904 0)
(0.00357791 -0.0203326 0)
(0.00769228 -0.018922 0)
(0.00772852 -0.0105243 0)
(0.00486028 -0.00104224 0)
(-0.000766786 0.00666917 0)
(-0.0102389 0.0134891 0)
(-0.0248009 0.0212808 0)
(-0.0449094 0.0315664 0)
(-0.0694937 0.0437246 0)
(-0.096174 0.0550315 0)
(-0.120658 0.0627677 0)
(-0.140009 0.0659269 0)
(-0.15531 0.0656716 0)
(-0.166815 0.0626413 0)
(-0.176045 0.0577893 0)
(-0.183168 0.0518567 0)
(-0.18886 0.0453069 0)
(-0.193664 0.0381704 0)
(-0.197656 0.0310426 0)
(-0.200747 0.0239824 0)
(-0.202771 0.0173346 0)
(-0.203792 0.0105893 0)
(-0.20383 0.00384618 0)
(-0.202943 -0.00309706 0)
(-0.201085 -0.0103026 0)
(-0.198139 -0.0180023 0)
(-0.194027 -0.0263538 0)
(-0.188604 -0.0354957 0)
(-0.181699 -0.0454868 0)
(-0.17318 -0.0566004 0)
(-0.162973 -0.0684698 0)
(-0.150752 -0.0801845 0)
(-0.135953 -0.0893644 0)
(-0.116653 -0.0921717 0)
(-0.0922315 -0.0844897 0)
(-0.0636512 -0.0640822 0)
(-0.0288502 -0.0276432 0)
(-0.00682841 0.00353868 0)
(-0.0017212 0.015284 0)
(-7.27854e-05 0.0130528 0)
(0.00221657 -0.024316 0)
(0.00271322 -0.0188732 0)
(-0.00136061 -0.00654182 0)
(-0.00806882 0.00565532 0)
(-0.0182622 0.0171238 0)
(-0.0329493 0.0287908 0)
(-0.0526758 0.0418139 0)
(-0.0762606 0.0558667 0)
(-0.100994 0.068632 0)
(-0.12345 0.0773484 0)
(-0.140608 0.0806444 0)
(-0.153573 0.0800722 0)
(-0.163452 0.0767162 0)
(-0.170709 0.0713161 0)
(-0.176378 0.0646763 0)
(-0.18092 0.0570259 0)
(-0.184705 0.0490758 0)
(-0.187463 0.0412291 0)
(-0.189142 0.0334746 0)
(-0.190008 0.0258138 0)
(-0.190319 0.018318 0)
(-0.190126 0.0108611 0)
(-0.1895 0.00340806 0)
(-0.188431 -0.00423972 0)
(-0.186838 -0.0122294 0)
(-0.184662 -0.020798 0)
(-0.181914 -0.0301466 0)
(-0.178509 -0.0404568 0)
(-0.174353 -0.0518097 0)
(-0.169271 -0.0641199 0)
(-0.162988 -0.0770866 0)
(-0.15508 -0.0900206 0)
(-0.145323 -0.102555 0)
(-0.132775 -0.111546 0)
(-0.11497 -0.111655 0)
(-0.0892082 -0.096559 0)
(-0.0555924 -0.0633094 0)
(-0.01671 -0.0142199 0)
(-0.00189554 0.0100472 0)
(0.00081704 0.0124686 0)
(-0.000326359 -0.0249848 0)
(-0.00413 -0.014161 0)
(-0.0119089 0.00111406 0)
(-0.0224129 0.0166489 0)
(-0.0366924 0.0322351 0)
(-0.0550891 0.048265 0)
(-0.0768276 0.06445 0)
(-0.0996514 0.0790076 0)
(-0.120432 0.0893725 0)
(-0.136217 0.0935663 0)
(-0.14753 0.0929604 0)
(-0.156085 0.0894167 0)
(-0.162213 0.0836382 0)
(-0.166657 0.0764182 0)
(-0.169899 0.0683081 0)
(-0.171749 0.059863 0)
(-0.172792 0.0512278 0)
(-0.173048 0.0426331 0)
(-0.173013 0.0342054 0)
(-0.172762 0.0260458 0)
(-0.172176 0.0181342 0)
(-0.171351 0.0103449 0)
(-0.170279 0.00257834 0)
(-0.168973 -0.00533956 0)
(-0.167423 -0.0135837 0)
(-0.165659 -0.0223948 0)
(-0.163719 -0.0319974 0)
(-0.161612 -0.0426337 0)
(-0.159324 -0.0545036 0)
(-0.156782 -0.0677004 0)
(-0.153805 -0.0820597 0)
(-0.150014 -0.0969953 0)
(-0.144731 -0.111268 0)
(-0.136843 -0.12308 0)
(-0.124996 -0.130089 0)
(-0.106499 -0.125274 0)
(-0.0784948 -0.101256 0)
(-0.0374755 -0.0518565 0)
(-0.00497246 -0.00250157 0)
(0.00154271 0.0117906 0)
(-0.00319839 -0.0202507 0)
(-0.0110471 -0.00581661 0)
(-0.0220464 0.0123293 0)
(-0.0358099 0.0311407 0)
(-0.0529886 0.0503102 0)
(-0.0728477 0.0690055 0)
(-0.093829 0.0858165 0)
(-0.113372 0.0984369 0)
(-0.12841 0.104513 0)
(-0.138681 0.104575 0)
(-0.146085 0.101129 0)
(-0.151229 0.0952202 0)
(-0.154476 0.0876174 0)
(-0.156329 0.0790434 0)
(-0.157076 0.0698939 0)
(-0.157116 0.0605677 0)
(-0.156704 0.0513137 0)
(-0.15599 0.0423224 0)
(-0.155135 0.0336528 0)
(-0.154119 0.0252921 0)
(-0.15296 0.0171884 0)
(-0.151689 0.00923477 0)
(-0.150309 0.00131571 0)
(-0.148837 -0.00671922 0)
(-0.147296 -0.0150455 0)
(-0.145732 -0.0238748 0)
(-0.144205 -0.033427 0)
(-0.142773 -0.0439395 0)
(-0.141482 -0.0556438 0)
(-0.140338 -0.068732 0)
(-0.139267 -0.0832714 0)
(-0.138037 -0.0990497 0)
(-0.13607 -0.115342 0)
(-0.132278 -0.130456 0)
(-0.125028 -0.141599 0)
(-0.112403 -0.144864 0)
(-0.0922014 -0.13294 0)
(-0.0605776 -0.0958156 0)
(-0.0141317 -0.0239543 0)
(0.00243746 0.0106521 0)
(-0.00581133 -0.0117905 0)
(-0.0167576 0.00618071 0)
(-0.030233 0.0264415 0)
(-0.0465376 0.0479824 0)
(-0.0649725 0.0693279 0)
(-0.0844055 0.0887132 0)
(-0.103027 0.104147 0)
(-0.117982 0.113079 0)
(-0.12788 0.114724 0)
(-0.134564 0.11182 0)
(-0.13903 0.106061 0)
(-0.141575 0.09827 0)
(-0.142669 0.0892294 0)
(-0.142766 0.0795621 0)
(-0.142181 0.0696628 0)
(-0.141234 0.0598692 0)
(-0.14008 0.0503516 0)
(-0.138827 0.0412151 0)
(-0.137515 0.0324516 0)
(-0.136148 0.0240199 0)
(-0.13474 0.0158478 0)
(-0.13329 0.00783206 0)
(-0.131802 -0.000139405 0)
(-0.130283 -0.00820425 0)
(-0.128762 -0.0165264 0)
(-0.127289 -0.0252924 0)
(-0.125941 -0.0347119 0)
(-0.124806 -0.0450176 0)
(-0.123976 -0.056454 0)
(-0.123517 -0.0692499 0)
(-0.12343 -0.0835582 0)
(-0.123573 -0.0993519 0)
(-0.12353 -0.116252 0)
(-0.122355 -0.133274 0)
(-0.118532 -0.148278 0)
(-0.110278 -0.157386 0)
(-0.0959007 -0.154742 0)
(-0.072221 -0.131371 0)
(-0.0317861 -0.0664684 0)
(0.000262979 -6.11591e-05 0)
(-0.00731083 3.14516e-05 0)
(-0.0208547 0.0209603 0)
(-0.0360955 0.0426364 0)
(-0.0535631 0.0656861 0)
(-0.0719204 0.0876563 0)
(-0.0898517 0.106247 0)
(-0.105256 0.118827 0)
(-0.115469 0.12315 0)
(-0.122093 0.12152 0)
(-0.126256 0.116242 0)
(-0.128576 0.108569 0)
(-0.129345 0.0992913 0)
(-0.129112 0.089202 0)
(-0.128237 0.0788371 0)
(-0.127 0.0685398 0)
(-0.125612 0.0585482 0)
(-0.124166 0.0489512 0)
(-0.122724 0.0397885 0)
(-0.121296 0.031018 0)
(-0.119886 0.0225792 0)
(-0.118478 0.0143936 0)
(-0.117055 0.00635676 0)
(-0.115599 -0.00163716 0)
(-0.114112 -0.00970687 0)
(-0.112615 -0.0179964 0)
(-0.111154 -0.0266621 0)
(-0.109807 -0.0358882 0)
(-0.108681 -0.0458913 0)
(-0.107898 -0.056923 0)
(-0.107578 -0.0692595 0)
(-0.107793 -0.0831601 0)
(-0.108501 -0.0987765 0)
(-0.109442 -0.116001 0)
(-0.10992 -0.134246 0)
(-0.108511 -0.151964 0)
(-0.103387 -0.165807 0)
(-0.0933022 -0.169889 0)
(-0.0757223 -0.157608 0)
(-0.0474527 -0.110732 0)
(-0.00664744 -0.0145588 0)
(-0.00824158 0.0139716 0)
(-0.0232871 0.0372162 0)
(-0.03922 0.0596289 0)
(-0.0568339 0.0830686 0)
(-0.0742956 0.104678 0)
(-0.0902631 0.12131 0)
(-0.101431 0.129392 0)
(-0.10873 0.13017 0)
(-0.113082 0.125909 0)
(-0.115502 0.118663 0)
(-0.116377 0.109442 0)
(-0.116109 0.0990741 0)
(-0.115196 0.0883021 0)
(-0.113903 0.0775497 0)
(-0.112453 0.067083 0)
(-0.11098 0.0570472 0)
(-0.109547 0.0474749 0)
(-0.108184 0.0383536 0)
(-0.106883 0.0296237 0)
(-0.105625 0.0212072 0)
(-0.104374 0.0130171 0)
(-0.103097 0.00495575 0)
(-0.101766 -0.00307939 0)
(-0.100375 -0.0111899 0)
(-0.0989312 -0.0194903 0)
(-0.0974728 -0.0281093 0)
(-0.0960671 -0.0371969 0)
(-0.0948174 -0.0469383 0)
(-0.0938575 -0.0575654 0)
(-0.0933362 -0.0693642 0)
(-0.0933801 -0.0826586 0)
(-0.0940321 -0.0977528 0)
(-0.0951662 -0.114807 0)
(-0.0963413 -0.133651 0)
(-0.0964245 -0.153409 0)
(-0.0933952 -0.171438 0)
(-0.0863983 -0.180873 0)
(-0.0729231 -0.177301 0)
(-0.0512242 -0.144085 0)
(-0.0150262 -0.0410313 0)
(-0.00861316 0.0288919 0)
(-0.0241367 0.0540751 0)
(-0.0398866 0.0765268 0)
(-0.0569001 0.099619 0)
(-0.0730587 0.119961 0)
(-0.0860306 0.133057 0)
(-0.0939968 0.137178 0)
(-0.099518 0.135098 0)
(-0.10226 0.12865 0)
(-0.103564 0.11978 0)
(-0.103588 0.10936 0)
(-0.102835 0.0982482 0)
(-0.101676 0.0870615 0)
(-0.100319 0.0761233 0)
(-0.0989359 0.0656242 0)
(-0.0976118 0.0556355 0)
(-0.0963869 0.0461474 0)
(-0.0952592 0.0371073 0)
(-0.0942034 0.0284354 0)
(-0.0931811 0.0200404 0)
(-0.0921482 0.0118327 0)
(-0.0910645 0.00372071 0)
(-0.0899025 -0.00438773 0)
(-0.0886447 -0.0125789 0)
(-0.0872916 -0.0209433 0)
(-0.0858676 -0.0295829 0)
(-0.084424 -0.0386143 0)
(-0.0830473 -0.0481868 0)
(-0.0818617 -0.0585019 0)
(-0.0810231 -0.0698349 0)
(-0.0806922 -0.0825447 0)
(-0.080979 -0.0970444 0)
(-0.0818656 -0.113701 0)
(-0.0831028 -0.132647 0)
(-0.0839145 -0.153562 0)
(-0.0824532 -0.17484 0)
(-0.0770027 -0.189594 0)
(-0.0667666 -0.192541 0)
(-0.0478557 -0.171648 0)
(-0.0179142 -0.0875872 0)
(-0.00840509 0.0438105 0)
(-0.0235797 0.0706831 0)
(-0.0385201 0.0926522 0)
(-0.054347 0.114746 0)
(-0.0688839 0.133119 0)
(-0.0785752 0.142017 0)
(-0.0849134 0.143206 0)
(-0.0889218 0.138569 0)
(-0.0906521 0.130325 0)
(-0.0912958 0.120137 0)
(-0.0909153 0.108836 0)
(-0.0900328 0.0972285 0)
(-0.0889028 0.085806 0)
(-0.0876992 0.0748097 0)
(-0.0865472 0.0643614 0)
(-0.0854974 0.0544722 0)
(-0.0845625 0.0450915 0)
(-0.0837198 0.0361359 0)
(-0.0829312 0.0275101 0)
(-0.0821526 0.0191169 0)
(-0.081339 0.0108681 0)
(-0.0804516 0.00267947 0)
(-0.0794647 -0.00553061 0)
(-0.0783576 -0.0138356 0)
(-0.0771247 -0.0223083 0)
(-0.0757784 -0.0310283 0)
(-0.0743518 -0.0400835 0)
(-0.0729075 -0.0495876 0)
(-0.0715452 -0.059702 0)
(-0.0704054 -0.0706697 0)
(-0.0696586 -0.0828504 0)
(-0.0694629 -0.0967303 0)
(-0.069886 -0.112853 0)
(-0.0708053 -0.131623 0)
(-0.0717577 -0.153088 0)
(-0.0713171 -0.176505 0)
(-0.0669471 -0.196947 0)
(-0.0593333 -0.204458 0)
(-0.0429664 -0.192865 0)
(-0.0151087 -0.119785 0)
(-0.00774243 0.0580998 0)
(-0.0219256 0.0864394 0)
(-0.0356551 0.107603 0)
(-0.05012 0.128381 0)
(-0.0623148 0.143734 0)
(-0.0696231 0.149187 0)
(-0.0749242 0.147822 0)
(-0.0777508 0.141069 0)
(-0.0789211 0.131359 0)
(-0.0792183 0.120133 0)
(-0.0787323 0.108192 0)
(-0.0779329 0.0962638 0)
(-0.076991 0.0847249 0)
(-0.0760523 0.0737485 0)
(-0.0751998 0.0633918 0)
(-0.0744571 0.0536152 0)
(-0.0738153 0.0443332 0)
(-0.0732407 0.0354415 0)
(-0.0726921 0.026836 0)
(-0.0721277 0.0184197 0)
(-0.0715075 0.010108 0)
(-0.0707986 0.00182427 0)
(-0.0699782 -0.00650437 0)
(-0.0690267 -0.0149421 0)
(-0.0679352 -0.0235498 0)
(-0.0667064 -0.0323907 0)
(-0.0653579 -0.041532 0)
(-0.0639291 -0.0510579 0)
(-0.0624905 -0.0610914 0)
(-0.0611538 -0.0718324 0)
(-0.0600753 -0.0836103 0)
(-0.0594357 -0.0969338 0)
(-0.0593732 -0.112478 0)
(-0.059874 -0.130914 0)
(-0.0606466 -0.15258 0)
(-0.0606568 -0.177137 0)
(-0.0574956 -0.202488 0)
(-0.0508556 -0.215337 0)
(-0.0376392 -0.211838 0)
(-0.0132835 -0.151131 0)
(-0.00673923 0.0710873 0)
(-0.0195491 0.10086 0)
(-0.0317803 0.121043 0)
(-0.0446825 0.140203 0)
(-0.0543367 0.152151 0)
(-0.0600824 0.155037 0)
(-0.0645456 0.151424 0)
(-0.0665556 0.142944 0)
(-0.0674481 0.13205 0)
(-0.067608 0.120019 0)
(-0.0671964 0.107623 0)
(-0.0665901 0.0954915 0)
(-0.0659091 0.08391 0)
(-0.0652684 0.0729903 0)
(-0.0647167 0.0627315 0)
(-0.0642577 0.0530527 0)
(-0.0638703 0.0438427 0)
(-0.0635191 0.0349851 0)
(-0.0631666 0.0263731 0)
(-0.0627778 0.0179128 0)
(-0.0623207 0.00952418 0)
(-0.0617691 0.00113668 0)
(-0.0611041 -0.00731565 0)
(-0.060309 -0.0158913 0)
(-0.0593727 -0.0246437 0)
(-0.0582916 -0.0336257 0)
(-0.0570708 -0.0428902 0)
(-0.0557307 -0.0524996 0)
(-0.054315 -0.0625447 0)
(-0.0529035 -0.0731811 0)
(-0.0516246 -0.0846915 0)
(-0.0506544 -0.0975658 0)
(-0.0501751 -0.11255 0)
(-0.0502663 -0.130545 0)
(-0.0507526 -0.152237 0)
(-0.0509362 -0.177752 0)
(-0.0489371 -0.205543 0)
(-0.0430005 -0.224686 0)
(-0.0327265 -0.22642 0)
(-0.0109218 -0.1751 0)
(-0.00561853 0.0825172 0)
(-0.0167001 0.113629 0)
(-0.0272574 0.132714 0)
(-0.0383289 0.149982 0)
(-0.04573 0.158937 0)
(-0.0506698 0.159875 0)
(-0.0541529 0.154285 0)
(-0.0556666 0.144423 0)
(-0.0564268 0.132589 0)
(-0.0565798 0.119944 0)
(-0.0563307 0.107227 0)
(-0.0559586 0.0949687 0)
(-0.0555512 0.0833828 0)
(-0.0551917 0.072526 0)
(-0.0549038 0.0623486 0)
(-0.0546797 0.052739 0)
(-0.0544946 0.0435693 0)
(-0.0543177 0.0347177 0)
(-0.0541187 0.0260783 0)
(-0.0538713 0.0175613 0)
(-0.0535519 0.00909074 0)
(-0.0531404 0.000600227 0)
(-0.0526224 -0.00797124 0)
(-0.0519842 -0.0166793 0)
(-0.0512137 -0.0255739 0)
(-0.0503029 -0.0347019 0)
(-0.0492483 -0.0441076 0)
(-0.0480555 -0.0538383 0)
(-0.0467471 -0.0639595 0)
(-0.045375 -0.0745876 0)
(-0.0440358 -0.0859523 0)
(-0.0428843 -0.0984951 0)
(-0.0421166 -0.112976 0)
(-0.0418844 -0.13046 0)
(-0.0421226 -0.151978 0)
(-0.0423801 -0.178041 0)
(-0.0410888 -0.207933 0)
(-0.035898 -0.233128 0)
(-0.0286056 -0.239649 0)
(-0.00949705 -0.19737 0)
(-0.00428396 0.0918217 0)
(-0.0135472 0.124457 0)
(-0.0223888 0.142556 0)
(-0.0315587 0.157896 0)
(-0.0371394 0.164463 0)
(-0.0413649 0.163742 0)
(-0.0440047 0.156588 0)
(-0.0452267 0.14565 0)
(-0.0459267 0.133087 0)
(-0.0461427 0.119984 0)
(-0.046083 0.107039 0)
(-0.0459424 0.0946996 0)
(-0.0457842 0.0831217 0)
(-0.0456631 0.0723147 0)
(-0.045587 0.0621915 0)
(-0.0455436 0.0526196 0)
(-0.045511 0.0434617 0)
(-0.0454654 0.034595 0)
(-0.0453855 0.0259157 0)
(-0.045253 0.0173379 0)
(-0.0450523 0.00878858 0)
(-0.0447691 0.000203798 0)
(-0.0443928 -0.0084751 0)
(-0.0439124 -0.0173023 0)
(-0.043316 -0.0263273 0)
(-0.0425929 -0.0355947 0)
(-0.0417333 -0.0451442 0)
(-0.0407324 -0.0550136 0)
(-0.039597 -0.0652495 0)
(-0.0383568 -0.0759357 0)
(-0.0370816 -0.0872509 0)
(-0.0359001 -0.099574 0)
(-0.0350047 -0.113631 0)
(-0.0345974 -0.130586 0)
(-0.0347187 -0.151803 0)
(-0.0350319 -0.178132 0)
(-0.0343348 -0.209155 0)
(-0.030577 -0.239273 0)
(-0.0242042 -0.250627 0)
(-0.00802417 -0.215055 0)
(-0.00306265 0.0992454 0)
(-0.0102826 0.133378 0)
(-0.0174544 0.150656 0)
(-0.0246732 0.164063 0)
(-0.028763 0.168842 0)
(-0.0322665 0.166794 0)
(-0.0342363 0.158455 0)
(-0.0352677 0.146711 0)
(-0.0359384 0.1336 0)
(-0.0362436 0.12016 0)
(-0.0363637 0.107054 0)
(-0.0364267 0.0946573 0)
(-0.0364751 0.0830834 0)
(-0.0365409 0.072304 0)
(-0.036624 0.0622061 0)
(-0.0367124 0.0526442 0)
(-0.0367902 0.0434768 0)
(-0.0368421 0.0345819 0)
(-0.0368549 0.0258584 0)
(-0.0368182 0.0172229 0)
(-0.0367226 0.00860419 0)
(-0.03656 -6.05431e-05 0)
(-0.0363223 -0.00882922 0)
(-0.0360009 -0.0177565 0)
(-0.0355853 -0.0268933 0)
(-0.0350633 -0.0362848 0)
(-0.0344211 -0.0459695 0)
(-0.0336463 -0.0559795 0)
(-0.0327342 -0.066348 0)
(-0.0316972 -0.0771312 0)
(-0.0305824 -0.0884616 0)
(-0.0294923 -0.100652 0)
(-0.0286034 -0.114367 0)
(-0.0281461 -0.130805 0)
(-0.0282563 -0.151594 0)
(-0.028672 -0.178022 0)
(-0.0284199 -0.210122 0)
(-0.0257837 -0.24416 0)
(-0.0212592 -0.260287 0)
(-0.00698548 -0.231454 0)
(-0.00159607 0.104212 0)
(-0.00696659 0.140212 0)
(-0.0124676 0.156919 0)
(-0.0178408 0.168679 0)
(-0.0207161 0.172207 0)
(-0.0234614 0.169142 0)
(-0.024885 0.159967 0)
(-0.0257607 0.14765 0)
(-0.0264067 0.134144 0)
(-0.0267975 0.120467 0)
(-0.0270684 0.107243 0)
(-0.0272957 0.0948002 0)
(-0.027503 0.0832181 0)
(-0.0277062 0.0724425 0)
(-0.0279019 0.0623442 0)
(-0.0280818 0.052771 0)
(-0.0282373 0.0435806 0)
(-0.0283609 0.0346521 0)
(-0.0284474 0.0258867 0)
(-0.0284926 0.0172023 0)
(-0.028493 0.00852851 0)
(-0.0284448 -0.000197659 0)
(-0.0283433 -0.00903444 0)
(-0.0281822 -0.0180386 0)
(-0.0279523 -0.0272635 0)
(-0.0276414 -0.0367571 0)
(-0.0272336 -0.0465593 0)
(-0.026712 -0.0567001 0)
(-0.0260633 -0.0672029 0)
(-0.0252876 -0.0781022 0)
(-0.0244138 -0.0894893 0)
(-0.0235217 -0.101612 0)
(-0.0227666 -0.115056 0)
(-0.0223838 -0.130999 0)
(-0.0225742 -0.151264 0)
(-0.0231779 -0.177585 0)
(-0.023471 -0.210563 0)
(-0.021912 -0.247217 0)
(-0.018451 -0.268118 0)
(-0.00598311 -0.244982 0)
(-0.000532404 0.107468 0)
(-0.00371419 0.145116 0)
(-0.00753627 0.161406 0)
(-0.011164 0.171896 0)
(-0.0130311 0.174662 0)
(-0.0149604 0.170843 0)
(-0.0159232 0.16115 0)
(-0.0166444 0.148474 0)
(-0.0172536 0.134712 0)
(-0.0177079 0.120876 0)
(-0.0180918 0.107569 0)
(-0.018441 0.0950831 0)
(-0.0187621 0.0834783 0)
(-0.0190598 0.0726852 0)
(-0.0193304 0.0625663 0)
(-0.0195706 0.0529676 0)
(-0.0197787 0.0437473 0)
(-0.019955 0.0347862 0)
(-0.020101 0.0259863 0)
(-0.020218 0.0172662 0)
(-0.0203073 0.00855516 0)
(-0.0203691 -0.000210711 0)
(-0.0204015 -0.0090915 0)
(-0.0204008 -0.0181462 0)
(-0.0203597 -0.0274318 0)
(-0.0202666 -0.0370003 0)
(-0.0201055 -0.046895 0)
(-0.019857 -0.0571463 0)
(-0.019503 -0.0677715 0)
(-0.0190341 -0.0787879 0)
(-0.0184652 -0.0902507 0)
(-0.017857 -0.102347 0)
(-0.0173431 -0.115579 0)
(-0.0171488 -0.131059 0)
(-0.017514 -0.15073 0)
(-0.0183793 -0.176805 0)
(-0.0192339 -0.210453 0)
(-0.0186361 -0.249446 0)
(-0.0164869 -0.274908 0)
(-0.00523584 -0.257604 0)
(0.00106826 0.108048 0)
(-0.000474752 0.148039 0)
(-0.00265165 0.164191 0)
(-0.00469752 0.173859 0)
(-0.00563605 0.176185 0)
(-0.00675111 0.171947 0)
(-0.00729228 0.162028 0)
(-0.00784028 0.14918 0)
(-0.00838944 0.135282 0)
(-0.00887536 0.121357 0)
(-0.00933284 0.107992 0)
(-0.00976397 0.0954641 0)
(-0.0101601 0.0838237 0)
(-0.0105174 0.0729957 0)
(-0.0108335 0.0628417 0)
(-0.01111 0.0532092 0)
(-0.0113522 0.0439579 0)
(-0.0115671 0.0349696 0)
(-0.0117618 0.0261466 0)
(-0.0119429 0.0174069 0)
(-0.0121155 0.00867885 0)
(-0.0122832 -0.000103302 0)
(-0.0124471 -0.00900202 0)
(-0.0126058 -0.0180791 0)
(-0.0127541 -0.0273953 0)
(-0.0128825 -0.0370075 0)
(-0.012976 -0.0469634 0)
(-0.0130154 -0.0572963 0)
(-0.0129803 -0.0680206 0)
(-0.0128549 -0.0791406 0)
(-0.0126431 -0.0906802 0)
(-0.0123895 -0.102772 0)
(-0.0122059 -0.115833 0)
(-0.0122994 -0.13089 0)
(-0.0129334 -0.149932 0)
(-0.0141475 -0.1756 0)
(-0.0155694 -0.209634 0)
(-0.0158372 -0.250454 0)
(-0.0147261 -0.280295 0)
(-0.0045329 -0.268326 0)
(0.00209018 0.10678 0)
(0.00261518 0.149044 0)
(0.00210293 0.165391 0)
(0.00153196 0.174673 0)
(0.00152727 0.17685 0)
(0.00122416 0.17245 0)
(0.0010828 0.162551 0)
(0.000730801 0.149727 0)
(0.000274006 0.135817 0)
(-0.000206939 0.121869 0)
(-0.000699961 0.108474 0)
(-0.00117627 0.0959056 0)
(-0.00161362 0.08422 0)
(-0.00200242 0.0733452 0)
(-0.0023413 0.0631472 0)
(-0.00263665 0.0534775 0)
(-0.00289944 0.0441981 0)
(-0.0031423 0.0351915 0)
(-0.00337754 0.0263594 0)
(-0.00361604 0.0176183 0)
(-0.00386684 0.00889496 0)
(-0.00413652 0.000121441 0)
(-0.0044291 -0.00876759 0)
(-0.00474553 -0.0178372 0)
(-0.00508277 -0.0271524 0)
(-0.00543356 -0.0367747 0)
(-0.00578571 -0.046757 0)
(-0.00612233 -0.0571357 0)
(-0.00642445 -0.067925 0)
(-0.00667224 -0.0791211 0)
(-0.00686121 -0.0907225 0)
(-0.00702214 -0.102814 0)
(-0.00724448 -0.115729 0)
(-0.00771192 -0.130395 0)
(-0.00869642 -0.148796 0)
(-0.0103335 -0.173952 0)
(-0.0123532 -0.208227 0)
(-0.0134224 -0.25069 0)
(-0.0134582 -0.284871 0)
(-0.00398563 -0.278431 0)
(0.00319343 0.103598 0)
(0.00567 0.148208 0)
(0.00672902 0.165153 0)
(0.00753138 0.174348 0)
(0.00849617 0.176537 0)
(0.00897458 0.172428 0)
(0.00925732 0.162762 0)
(0.00914921 0.1501 0)
(0.00882162 0.136286 0)
(0.00838468 0.122375 0)
(0.00789455 0.108976 0)
(0.00740623 0.0963755 0)
(0.00695475 0.0846409 0)
(0.00655589 0.073712 0)
(0.00621081 0.0634654 0)
(0.00590987 0.0537587 0)
(0.00563742 0.0444572 0)
(0.00537578 0.0354433 0)
(0.00510782 0.0266176 0)
(0.00481844 0.0178948 0)
(0.00449506 0.00919893 0)
(0.00412797 0.000459595 0)
(0.00371043 -0.00839134 0)
(0.00323922 -0.0174223 0)
(0.00271481 -0.0267025 0)
(0.00214124 -0.036298 0)
(0.00152762 -0.0462672 0)
(0.00088719 -0.0566511 0)
(0.000234263 -0.0674649 0)
(-0.000410353 -0.0786965 0)
(-0.00103684 -0.0903306 0)
(-0.00166551 -0.102409 0)
(-0.00236127 -0.115192 0)
(-0.003281 -0.129496 0)
(-0.00469528 -0.14726 0)
(-0.00681478 -0.171787 0)
(-0.0094642 -0.206113 0)
(-0.0112152 -0.249902 0)
(-0.0123474 -0.288382 0)
(-0.00345884 -0.287236 0)
(0.00437928 0.0981166 0)
(0.00871204 0.145518 0)
(0.0112522 0.163484 0)
(0.0133254 0.17291 0)
(0.0152769 0.175337 0)
(0.0165168 0.171781 0)
(0.0172861 0.162634 0)
(0.0174685 0.150266 0)
(0.0173147 0.136651 0)
(0.0169679 0.12284 0)
(0.0165219 0.109468 0)
(0.0160538 0.096845 0)
(0.0156132 0.0850619 0)
(0.0152239 0.0740779 0)
(0.0148883 0.0637825 0)
(0.0145945 0.0540421 0)
(0.014323 0.0447259 0)
(0.0140516 0.035717 0)
(0.0137589 0.0269142 0)
(0.0134257 0.0182299 0)
(0.0130361 0.00958521 0)
(0.0125772 0.00090656 0)
(0.0120397 -0.00787758 0)
(0.0114182 -0.016839 0)
(0.0107098 -0.0260501 0)
(0.00991489 -0.0355804 0)
(0.00903796 -0.0454922 0)
(0.00808653 -0.0558314 0)
(0.00707159 -0.0666176 0)
(0.0060086 -0.077836 0)
(0.00490797 -0.0894617 0)
(0.00376372 -0.101504 0)
(0.00253315 -0.114149 0)
(0.00108694 -0.128111 0)
(-0.000833356 -0.145247 0)
(-0.00349427 -0.16909 0)
(-0.00684869 -0.203376 0)
(-0.00917269 -0.248314 0)
(-0.011517 -0.291281 0)
(-0.00301026 -0.295613 0)
(0.0055152 0.0906981 0)
(0.0116813 0.141059 0)
(0.0156622 0.160461 0)
(0.0189346 0.170408 0)
(0.0219051 0.173238 0)
(0.0238083 0.170458 0)
(0.0251737 0.162136 0)
(0.0257214 0.15018 0)
(0.025797 0.13686 0)
(0.0255953 0.123217 0)
(0.0252399 0.10991 0)
(0.0248299 0.0972834 0)
(0.024431 0.0854611 0)
(0.0240745 0.0744256 0)
(0.0237653 0.0640846 0)
(0.0234914 0.0543159 0)
(0.0232311 0.0449941 0)
(0.0229587 0.0360033 0)
(0.0226491 0.0272408 0)
(0.0222795 0.018616 0)
(0.0218307 0.0100469 0)
(0.0212867 0.00145631 0)
(0.0206353 -0.00723101 0)
(0.0198685 -0.0160901 0)
(0.0189795 -0.0251958 0)
(0.0179644 -0.034621 0)
(0.0168222 -0.0444311 0)
(0.0155542 -0.0546745 0)
(0.0141645 -0.0653728 0)
(0.0126615 -0.076516 0)
(0.0110539 -0.0880744 0)
(0.0093476 -0.100039 0)
(0.00752141 -0.112536 0)
(0.00547364 -0.126164 0)
(0.00297535 -0.142678 0)
(-0.00028688 -0.165769 0)
(-0.00441602 -0.199927 0)
(-0.00721945 -0.246005 0)
(-0.010986 -0.293094 0)
(-0.00229472 -0.303167 0)
(0.00654192 0.0813851 0)
(0.0145202 0.134828 0)
(0.0199152 0.156099 0)
(0.024325 0.166855 0)
(0.0282738 0.170401 0)
(0.0308828 0.16834 0)
(0.0328779 0.161126 0)
(0.0339086 0.149769 0)
(0.034291 0.13685 0)
(0.0343002 0.123446 0)
(0.0340944 0.110253 0)
(0.0337925 0.0976551 0)
(0.0334735 0.0858105 0)
(0.0331777 0.0747337 0)
(0.0329158 0.0643553 0)
(0.0326776 0.0545675 0)
(0.0324409 0.0452516 0)
(0.0321781 0.0362937 0)
(0.0318611 0.0275898 0)
(0.031464 0.0190463 0)
(0.030964 0.0105775 0)
(0.0303421 0.00210259 0)
(0.029583 -0.00645707 0)
(0.0286751 -0.0151793 0)
(0.0276075 -0.0241405 0)
(0.0263713 -0.0334156 0)
(0.0249595 -0.0430721 0)
(0.0233655 -0.0531623 0)
(0.0215849 -0.0637117 0)
(0.0196186 -0.0747137 0)
(0.0174736 -0.0861373 0)
(0.0151597 -0.0979653 0)
(0.0126748 -0.110287 0)
(0.00996228 -0.123588 0)
(0.00681283 -0.139479 0)
(0.00288005 -0.161772 0)
(-0.00213231 -0.195745 0)
(-0.00538518 -0.243021 0)
(-0.0106095 -0.293964 0)
(-0.00166754 -0.310443 0)
(0.00738457 0.0702299 0)
(0.0171233 0.126922 0)
(0.0239138 0.150472 0)
(0.029423 0.162311 0)
(0.0341771 0.166804 0)
(0.037766 0.165482 0)
(0.0403491 0.159452 0)
(0.0419871 0.148935 0)
(0.0427823 0.136542 0)
(0.0430905 0.123461 0)
(0.0431108 0.110441 0)
(0.0429809 0.0979109 0)
(0.0427928 0.0860727 0)
(0.0425975 0.074975 0)
(0.0424132 0.064575 0)
(0.0422339 0.0547819 0)
(0.0420391 0.0454865 0)
(0.0418006 0.0365779 0)
(0.0414887 0.0279518 0)
(0.0410747 0.0195119 0)
(0.0405329 0.0111691 0)
(0.0398411 0.00283886 0)
(0.0389802 -0.00556073 0)
(0.0379344 -0.0141092 0)
(0.0366879 -0.0228842 0)
(0.0352264 -0.0319618 0)
(0.0335364 -0.0414099 0)
(0.0316029 -0.0512818 0)
(0.0294125 -0.0616078 0)
(0.0269566 -0.0723892 0)
(0.0242366 -0.0836041 0)
(0.0212669 -0.0952347 0)
(0.0180672 -0.107337 0)
(0.0146222 -0.120305 0)
(0.0107528 -0.135592 0)
(0.00607846 -0.157051 0)
(8.51482e-05 -0.190771 0)
(-0.0036165 -0.239263 0)
(-0.0103526 -0.294195 0)
(-0.000723791 -0.317163 0)
(0.00790012 0.0574636 0)
(0.0193371 0.117292 0)
(0.0274528 0.143515 0)
(0.0340589 0.156749 0)
(0.0396711 0.162292 0)
(0.0441695 0.161966 0)
(0.047495 0.157011 0)
(0.0498471 0.147547 0)
(0.0511971 0.135828 0)
(0.0519291 0.123167 0)
(0.0522806 0.110391 0)
(0.0524105 0.0979848 0)
(0.0524257 0.0861951 0)
(0.0523887 0.0751087 0)
(0.052327 0.0647123 0)
(0.0522412 0.0549351 0)
(0.0521148 0.0456796 0)
(0.0519217 0.0368404 0)
(0.0516316 0.0283138 0)
(0.0512145 0.0200019 0)
(0.0506417 0.0118127 0)
(0.0498885 0.00365833 0)
(0.0489314 -0.00454572 0)
(0.0477494 -0.0128798 0)
(0.0463219 -0.0214227 0)
(0.0446283 -0.0302507 0)
(0.0426474 -0.0394309 0)
(0.0403559 -0.0490166 0)
(0.03773 -0.0590412 0)
(0.0347516 -0.069515 0)
(0.0314164 -0.0804301 0)
(0.0277414 -0.0917848 0)
(0.0237607 -0.10362 0)
(0.019501 -0.116239 0)
(0.0148391 -0.130945 0)
(0.00934017 -0.151582 0)
(0.00231254 -0.185028 0)
(-0.0017568 -0.234693 0)
(-0.00994306 -0.29342 0)
(0.000161783 -0.323692 0)
(0.00782726 0.0433737 0)
(0.0208674 0.106177 0)
(0.0303008 0.135324 0)
(0.0380277 0.1502 0)
(0.0445535 0.156853 0)
(0.0499311 0.157625 0)
(0.0541708 0.153739 0)
(0.0573418 0.145453 0)
(0.0594131 0.134556 0)
(0.0607276 0.122437 0)
(0.0615512 0.109997 0)
(0.062062 0.0977872 0)
(0.062381 0.0861043 0)
(0.0625842 0.0750763 0)
(0.0627102 0.0647214 0)
(0.0627688 0.0549916 0)
(0.0627503 0.0458038 0)
(0.0626327 0.03706 0)
(0.0623878 0.0286592 0)
(0.0619852 0.0205035 0)
(0.0613948 0.012499 0)
(0.0605892 0.00455472 0)
(0.0595405 -0.00341432 0)
(0.0582222 -0.011489 0)
(0.0566082 -0.019749 0)
(0.0546712 -0.0282694 0)
(0.0523815 -0.0371149 0)
(0.0497066 -0.0463384 0)
(0.046613 -0.0559764 0)
(0.0430733 -0.0660501 0)
(0.039077 -0.0765704 0)
(0.0346431 -0.0875584 0)
(0.0298099 -0.0990624 0)
(0.0246641 -0.111309 0)
(0.0191038 -0.12544 0)
(0.0126632 -0.145269 0)
(0.00461477 -0.178446 0)
(0.000269613 -0.229464 0)
(-0.0101373 -0.291736 0)
(0.001233 -0.329845 0)
(0.00660354 0.0289552 0)
(0.0212893 0.0933501 0)
(0.03209 0.125643 0)
(0.0410368 0.142568 0)
(0.0485779 0.150512 0)
(0.0548862 0.152341 0)
(0.0601072 0.14955 0)
(0.06425 0.142484 0)
(0.0672403 0.132548 0)
(0.069337 0.1211 0)
(0.0708132 0.109111 0)
(0.0718635 0.0971928 0)
(0.0726222 0.0856968 0)
(0.0731783 0.074794 0)
(0.0735835 0.0645361 0)
(0.0738593 0.0549001 0)
(0.0740054 0.0458195 0)
(0.0740066 0.0372069 0)
(0.0738396 0.0289658 0)
(0.073475 0.0210006 0)
(0.0728841 0.0132173 0)
(0.0720354 0.00552195 0)
(0.0708985 -0.00216703 0)
(0.0694413 -0.00993154 0)
(0.0676317 -0.0178518 0)
(0.0654352 -0.0259993 0)
(0.0628127 -0.0344362 0)
(0.0597229 -0.0432143 0)
(0.0561229 -0.0523733 0)
(0.0519776 -0.0619476 0)
(0.047271 -0.0719701 0)
(0.0420254 -0.0824927 0)
(0.0362759 -0.0935828 0)
(0.0301612 -0.105426 0)
(0.023596 -0.118987 0)
(0.0161628 -0.138 0)
(0.00701017 -0.170789 0)
(0.00253741 -0.223176 0)
(-0.0102608 -0.289444 0)
(0.00247762 -0.335757 0)
(0.0035505 0.0156792 0)
(0.0200734 0.0796165 0)
(0.0324997 0.114564 0)
(0.0427865 0.133735 0)
(0.0514551 0.143178 0)
(0.0587694 0.146057 0)
(0.0650437 0.144303 0)
(0.070305 0.138444 0)
(0.0744227 0.129583 0)
(0.0775393 0.118953 0)
(0.0798898 0.107548 0)
(0.0816772 0.0960398 0)
(0.0830485 0.0848352 0)
(0.0841054 0.0741481 0)
(0.0849125 0.0640646 0)
(0.0855048 0.054588 0)
(0.085894 0.0456711 0)
(0.0860747 0.0372389 0)
(0.0860307 0.0292028 0)
(0.0857366 0.0214725 0)
(0.0851666 0.0139538 0)
(0.0842874 0.00655386 0)
(0.0830649 -0.000804193 0)
(0.0814635 -0.00820021 0)
(0.0794463 -0.0157158 0)
(0.0769695 -0.0234173 0)
(0.0739861 -0.0313635 0)
(0.0704458 -0.0396058 0)
(0.0662981 -0.0481876 0)