/*--------------------------------*- C++ -*----------------------------------*\
  =========                 |
  \\      /  F ield         | OpenFOAM: The Open Source CFD Toolbox
   \\    /   O peration     | Website:  https://openfoam.org
    \\  /    A nd           | Version:  12
     \\/     M anipulation  |
\*---------------------------------------------------------------------------*/
FoamFile
{
    format      ascii;
    class       volScalarField;
    location    "200";
    object      epsilon;
}
// * * * * * * * * * * * * * * * * * * * * * * * * * * * * * * * * * * * * * //

dimensions      [0 2 -3 0 0 0 0];

internalField   nonuniform List<scalar> 
12225
(
285.522
270.706
257.916
243.811
232.462
223.086
216.811
212.698
212.743
213.956
217.248
220.897
228.157
232.614
241.575
245.986
257.311
263.664
52.4925
91.8827
106.974
114.748
124.844
136.782
152.694
169.901
191.123
210.93
235.255
255.485
281.11
299.34
324.864
339.281
364.936
373.689
20.5286
34.8723
44.6759
50.4684
55.3969
59.6061
64.6667
69.6402
76.3227
83.1815
91.4459
99.3203
108.189
116.949
125.573
135.312
142.655
153.868
16.0023
19.4862
24.0819
27.5632
30.4974
32.8686
35.1566
37.2923
39.5045
41.9168
44.3397
47.2022
49.6862
53.0429
55.4216
59.2471
61.4509
65.6747
15.0385
15.7123
17.3993
19.0781
20.6397
22.0256
23.2466
24.4307
25.4447
26.5945
27.5242
28.7584
29.6334
30.987
31.816
33.2692
34.0842
35.6553
14.7897
14.8256
15.2495
15.8675
16.5678
17.2869
17.9239
18.5841
19.1193
19.734
20.1935
20.7992
21.2089
21.8233
22.1993
22.827
23.1817
23.8618
14.7658
14.6146
14.641
14.7257
14.9352
15.2199
15.4916
15.8089
16.071
16.3826
16.6182
16.9204
17.1311
17.4274
17.6164
17.9128
18.0826
18.4077
14.7687
14.5866
14.466
14.3801
14.3678
14.3896
14.4394
14.5334
14.6185
14.7367
14.8309
14.9565
15.0478
15.1763
15.2612
15.3921
15.4704
15.6203
14.768
14.591
14.4349
14.2963
14.185
14.1044
14.0399
14.0066
13.9814
13.9785
13.9809
13.9917
14.0041
14.0296
14.0472
14.0795
14.1034
14.146
14.7665
14.594
14.432
14.282
14.143
14.0219
13.9115
13.8194
13.737
13.6698
13.6102
13.5633
13.5181
13.4872
13.4516
13.4342
13.4023
13.4009
14.7659
14.5945
14.4322
14.2803
14.1362
14.0032
13.8782
13.7644
13.6582
13.5629
13.4735
13.3952
13.3198
13.2561
13.1915
13.1408
13.0838
13.0452
14.7657
14.5943
14.4321
14.2798
14.1353
13.9999
13.8715
13.7518
13.6385
13.5336
13.4341
13.343
13.2557
13.1771
13.1003
13.0328
12.9647
12.9074
14.7657
14.5941
14.432
14.2794
14.1349
13.9989
13.8699
13.7485
13.6332
13.5249
13.422
13.3257
13.2338
13.1483
13.0663
12.9906
12.9172
12.8502
14.7657
14.5939
14.4318
14.279
14.1346
13.9983
13.8692
13.7472
13.6315
13.5223
13.4184
13.3203
13.227
13.1389
13.055
12.9759
12.9002
12.8291
14.7657
14.5938
14.4317
14.2787
14.1342
13.9977
13.8686
13.7464
13.6307
13.5211
13.4171
13.3185
13.2248
13.136
13.0516
12.9715
12.8952
12.8228
14.7657
14.5937
14.4316
14.2785
14.1339
13.9973
13.8681
13.7458
13.63
13.5202
13.4161
13.3174
13.2236
13.1346
13.05
12.9697
12.8932
12.8205
14.7657
14.5937
14.4315
14.2783
14.1337
13.997
13.8677
13.7453
13.6294
13.5195
13.4154
13.3165
13.2227
13.1336
13.0489
12.9684
12.8919
12.819
14.7657
14.5937
14.4314
14.2782
14.1335
13.9968
13.8674
13.745
13.629
13.5191
13.4148
13.3159
13.222
13.1329
13.0481
12.9676
12.8909
12.818
14.7657
14.5937
14.4314
14.2782
14.1335
13.9967
13.8673
13.7448
13.6288
13.5189
13.4146
13.3157
13.2217
13.1325
13.0477
12.9671
12.8904
12.8175
14.7657
14.5937
14.4314
14.2782
14.1336
13.9968
13.8674
13.745
13.629
13.5191
13.4148
13.3159
13.222
13.1327
13.048
12.9674
12.8907
12.8177
14.7657
14.5937
14.4315
14.2784
14.1338
13.997
13.8677
13.7453
13.6294
13.5196
13.4155
13.3166
13.2229
13.1338
13.0494
12.969
12.8927
12.82
14.7657
14.5937
14.4316
14.2785
14.1341
13.9974
13.8685
13.7464
13.6312
13.522
13.419
13.3214
13.2293
13.1418
13.0595
12.981
12.9074
12.8368
14.7658
14.5937
14.4318
14.2788
14.1353
14.0002
13.8742
13.756
13.6463
13.5435
13.4485
13.3592
13.277
13.1992
13.1282
13.0601
12.9988
12.9387
14.7655
14.5928
14.4328
14.2844
14.1515
14.0321
13.9289
13.8375
13.7593
13.6894
13.6306
13.5769
13.5328
13.4905
13.4574
13.423
13.3989
13.3693
14.7591
14.5932
14.4603
14.3602
14.3029
14.2766
14.2797
14.2939
14.3202
14.3529
14.3959
14.4345
14.4824
14.5217
14.572
14.6089
14.6616
14.6939
14.7202
14.6909
14.7541
14.9176
15.1829
15.4612
15.7476
16.0121
16.2723
16.5038
16.7361
16.9386
17.1507
17.3309
17.531
17.6936
17.8888
18.036
14.7418
15.514
16.5479
17.6844
18.7046
19.5676
20.3373
20.9969
21.6195
22.1661
22.7189
23.2109
23.74
24.2043
24.7327
25.1827
25.725
26.166
15.982
20.9901
25.0228
27.7596
29.7842
31.3581
32.7767
34.0576
35.3592
36.6162
37.9753
39.2971
40.7614
42.1456
43.7177
45.1735
46.8835
48.3582
29.8999
47.2157
54.8681
58.6723
61.6129
64.431
67.5798
70.9767
74.7379
78.7137
82.9847
87.3436
91.9044
96.4493
101.099
105.621
110.174
114.575
165.791
160.073
154.898
149.564
144.479
139.677
135.615
132.109
129.271
126.974
125.32
124.045
123.34
122.83
122.826
122.983
123.27
123.827
0.446622
0.476014
0.847847
1.20027
1.57393
1.97295
2.40064
2.85463
3.32749
3.80973
4.29188
4.76604
5.22579
5.66632
6.08359
6.4744
6.83566
7.16496
7.46033
7.72161
7.95063
8.14126
8.28596
8.49307
8.6729
8.86299
9.03713
39.7252
40.6353
40.9214
40.3934
39.5985
9.06886
8.82457
8.40269
9.19898
40.2572
44.0282
46.7433
50.3581
53.777
57.5504
61.4006
65.4659
69.6803
74.0817
78.6539
83.4131
88.3535
93.4877
98.8111
104.336
110.058
115.988
122.123
128.474
135.035
141.818
148.816
156.041
163.484
171.157
179.049
187.173
195.516
204.089
212.879
221.896
231.123
240.572
250.225
260.089
270.147
280.404
290.841
301.463
312.247
323.197
334.29
345.527
356.882
368.356
379.918
391.567
403.269
415.016
426.774
438.527
450.237
461.883
473.426
484.842
496.12
507.293
518.449
529.396
540.199
550.811
561.223
571.408
581.344
591.01
600.381
609.437
618.155
626.513
634.491
642.067
649.222
655.935
662.191
667.971
673.263
678.048
682.321
686.066
689.28
691.953
694.086
695.672
696.721
697.231
697.189
696.476
695.294
693.743
691.622
688.965
685.842
682.255
678.235
673.799
668.976
663.791
658.272
652.45
646.351
640.021
633.495
626.837
620.083
613.279
606.458
599.648
592.878
586.181
579.583
573.113
566.805
560.684
554.77
549.074
543.623
538.435
533.526
528.901
524.575
520.547
516.823
513.391
510.238
507.347
504.717
502.294
500.044
497.951
496.749
498.838
501.643
504.681
507.852
510.996
513.929
516.561
518.822
520.676
521.621
521.259
518.108
491.126
1.91667
1.13818
1.13866
1.28802
1.51442
1.79652
2.12505
2.49101
2.88445
3.29589
3.71698
4.14156
4.56507
4.98501
5.39999
5.81029
6.21737
6.6251
7.04018
7.47461
7.94783
8.49206
9.15949
10.0438
11.2644
13.0295
15.6682
19.7712
20.2545
20.0413
19.3355
18.0743
15.9579
18.2036
20.13
23.5653
27.0637
28.5308
30.2044
31.9791
33.7858
35.6742
37.6184
39.6346
41.7169
43.871
46.0962
48.3956
50.7693
53.2199
55.7473
58.3541
61.0398
63.8068
66.6547
69.5854
72.5981
75.6947
78.874
82.1374
85.4836
88.9137
92.426
96.0213
99.6973
103.454
107.29
111.204
115.194
119.258
123.395
127.601
131.874
136.212
140.61
145.067
149.576
154.136
158.74
163.385
168.065
172.775
177.508
182.257
187.015
191.775
196.526
201.262
205.974
210.654
215.299
219.908
224.495
229.087
233.75
238.349
242.889
247.357
251.746
256.048
260.255
264.357
268.345
272.213
275.949
279.548
282.999
286.294
289.426
292.388
295.171
297.769
300.176
302.385
304.392
306.193
307.782
309.158
310.317
311.257
311.978
312.476
312.739
312.756
312.587
312.234
311.656
310.861
309.866
308.679
307.308
305.763
304.052
302.186
300.177
298.036
295.777
293.414
290.965
288.449
285.884
283.285
280.667
278.04
275.42
272.818
270.249
267.725
265.259
262.862
260.546
258.315
256.184
254.159
252.249
250.459
248.796
247.261
245.86
244.589
243.45
242.436
241.548
240.776
240.116
239.576
239.362
239.822
240.524
241.333
242.179
242.976
243.676
244.237
244.698
244.953
244.904
244.679
244.064
242.045
3.80873
1.92221
1.7048
1.75489
1.91406
2.14552
2.43295
2.76534
3.13262
3.52559
3.93634
4.35902
4.78972
5.22659
5.66931
6.11921
6.57901
7.05361
7.5505
8.08138
8.6632
9.31974
10.0815
10.9744
12.0225
13.2269
14.5385
15.802
16.471
16.952
17.4054
17.959
18.8128
20.2722
21.8336
23.5173
25.0787
26.4448
27.8621
29.3382
30.8655
32.4477
34.083
35.7738
37.52
39.3232
41.1837
43.1028
45.081
47.1193
49.2181
51.3784
53.6003
55.8848
58.232
60.6426
63.1165
65.6542
68.2555
70.9206
73.6493
76.4413
79.2963
82.2138
85.193
88.2333
91.3337
94.4931
97.7102
100.984
104.312
107.693
111.126
114.607
118.135
121.707
125.32
128.971
132.657
136.375
140.12
143.89
147.679
151.484
155.3
159.121
162.944
166.765
170.579
174.384
178.179
181.964
185.743
189.52
193.288
197.016
200.697
204.325
207.893
211.394
214.822
218.17
221.43
224.596
227.661
230.617
233.458
236.177
238.767
241.223
243.538
245.706
247.722
249.581
251.279
252.811
254.174
255.366
256.384
257.225
257.889
258.376
258.665
258.759
258.717
258.5
258.111
257.552
256.831
255.955
254.93
253.762
252.459
251.03
249.484
247.83
246.078
244.241
242.33
240.36
238.345
236.295
234.223
232.138
230.051
227.974
225.917
223.889
221.901
219.961
218.078
216.259
214.512
212.844
211.261
209.768
208.368
207.066
205.862
204.759
203.753
202.844
202.03
201.307
200.668
200.118
199.722
199.578
199.571
199.631
199.689
199.66
199.544
199.334
199.026
198.585
198.001
197.445
196.919
197.04
5.79423
2.76032
2.32482
2.29364
2.41116
2.61482
2.88074
3.19611
3.55135
3.93838
4.35033
4.78197
5.22971
5.69179
6.16782
6.65883
7.16687
7.69521
8.24834
8.83241
9.45522
10.1263
10.8553
11.6504
12.5134
13.4341
14.3828
15.3086
16.1606
17.0025
17.8859
18.8544
19.9463
21.166
22.4748
23.818
25.1579
26.4945
27.8668
29.2837
30.7489
32.2641
33.8298
35.4472
37.1169
38.8399
40.6169
42.4488
44.3363
46.2802
48.281
50.3394
52.4558
54.6309
56.8651
59.1588
61.5124
63.9262
66.4003
68.935
71.53
74.1856
76.9012
79.6768
82.5119
85.4058
88.3579
91.3675
94.4333
97.5544
100.729
103.957
107.235
110.562
113.936
117.355
120.816
124.316
127.854
131.425
135.026
138.656
142.308
145.981
149.67
153.372
157.082
160.798
164.516
168.234
171.949
175.658
179.361
183.053
186.722
190.355
193.947
197.489
200.977
204.402
207.758
211.039
214.237
217.345
220.357
223.266
226.064
228.746
231.305
233.733
236.026
238.178
240.182
242.035
243.73
245.266
246.636
247.84
248.874
249.736
250.426
250.943
251.272
251.404
251.401
251.222
250.878
250.37
249.704
248.886
247.92
246.814
245.574
244.209
242.727
241.137
239.449
237.674
235.823
233.909
231.944
229.938
227.903
225.849
223.786
221.725
219.674
217.645
215.645
213.683
211.767
209.905
208.102
206.366
204.702
203.114
201.607
200.183
198.843
197.59
196.421
195.334
194.326
193.392
192.526
191.726
191.017
190.431
189.921
189.433
188.923
188.354
187.712
186.984
186.165
185.253
184.27
183.376
182.64
182.639
7.71204
3.59326
2.94232
2.83552
2.9131
3.09262
3.34147
3.64393
3.98999
4.37207
4.78398
5.22098
5.67961
6.1579
6.65504
7.17136
7.70793
8.26654
8.84944
9.45952
10.1001
10.7751
11.4884
12.2438
13.0429
13.884
14.7593
15.6578
16.5741
17.5191
18.5053
19.5449
20.6464
21.8091
23.0234
24.2819
25.572
26.8958
28.2623
29.6765
31.1392
32.6516
34.2145
35.8291
37.4962
39.2169
40.992
42.8227
44.7098
46.6546
48.6577
50.7196
52.8409
55.0224
57.2648
59.5688
61.9349
64.3636
66.8553
69.4105
72.0294
74.7121
77.4587
80.2692
83.1433
86.0808
89.0813
92.144
95.2682
98.4531
101.697
105
108.359
111.773
115.241
118.759
122.326
125.939
129.596
133.293
137.027
140.796
144.596
148.422
152.272
156.141
160.027
163.924
167.828
171.738
175.647
179.55
183.443
187.317
191.166
194.98
198.752
202.476
206.145
209.751
213.287
216.746
220.121
223.403
226.587
229.664
232.627
235.47
238.184
240.763
243.202
245.493
247.63
249.608
251.423
253.069
254.543
255.841
256.961
257.899
258.656
259.231
259.616
259.792
259.813
259.648
259.311
258.802
258.126
257.288
256.293
255.147
253.859
252.434
250.883
249.214
247.438
245.565
243.607
241.575
239.482
237.337
235.154
232.942
230.712
228.474
226.239
224.015
221.812
219.637
217.5
215.407
213.366
211.382
209.461
207.608
205.826
204.118
202.486
200.93
199.449
198.04
196.7
195.424
194.205
193.041
191.938
190.904
189.924
188.954
187.967
186.935
185.842
184.679
183.443
182.145
180.82
179.609
178.584
178.072
9.50383
4.38739
3.52999
3.35031
3.3889
3.54486
3.77696
4.06619
4.40152
4.77537
5.18195
5.61678
6.07655
6.55912
7.06335
7.58903
8.13662
8.70717
9.30203
9.92294
10.5718
11.2508
11.9622
12.7084
13.4913
14.3121
15.1702
16.0645
16.9949
17.964
18.9749
20.0312
21.1354
22.2884
23.4888
24.7348
26.0244
27.3582
28.7386
30.1679
31.6473
33.1782
34.7616
36.399
38.0913
39.8398
41.6456
43.5098
45.4336
47.4179
49.4636
51.5724
53.7453
55.9833
58.2876
60.659
63.0985
65.607
68.1852
70.8338
73.5534
76.3445
79.2074
82.1424
85.1496
88.2289
91.38
94.6027
97.8963
101.26
104.693
108.193
111.761
115.392
119.087
122.843
126.656
130.526
134.448
138.419
142.437
146.498
150.597
154.732
158.897
163.088
167.301
171.531
175.773
180.021
184.271
188.515
192.747
196.958
201.142
205.29
209.395
213.45
217.447
221.377
225.233
229.007
232.691
236.276
239.755
243.119
246.361
249.472
252.446
255.273
257.948
260.464
262.813
264.989
266.988
268.803
270.432
271.868
273.111
274.156
275.003
275.65
276.096
276.314
276.352
276.19
275.839
275.301
274.578
273.677
272.602
271.36
269.959
268.406
266.711
264.883
262.933
260.871
258.71
256.461
254.136
251.748
249.308
246.827
244.317
241.788
239.251
236.716
234.192
231.688
229.212
226.772
224.376
222.029
219.737
217.505
215.337
213.235
211.203
209.239
207.343
205.515
203.75
202.043
200.391
198.787
197.232
195.726
194.256
192.799
191.332
189.836
188.296
186.706
185.065
183.393
181.727
180.187
178.821
177.817
11.1247
5.11827
4.06765
3.81761
3.81785
3.94951
4.16379
4.43815
4.76023
5.12216
5.51827
5.94434
6.3972
6.87473
7.37563
7.89949
8.44646
9.01728
9.61301
10.235
10.8849
11.5644
12.2752
13.0195
13.799
14.6155
15.4702
16.3641
17.2983
18.2742
19.2931
20.3568
21.4666
22.6234
23.8279
25.0804
26.381
27.7308
29.1309
30.5829
32.0881
33.648
35.2641
36.9377
38.6703
40.4634
42.3184
44.2369
46.2202
48.2698
50.3874
52.5743
54.8322
57.1625
59.5667
62.046
64.6019
67.2356
69.9482
72.7409
75.6145
78.5699
81.6079
84.7289
87.9333
91.2213
94.593
98.0481
101.586
105.206
108.908
112.69
116.551
120.488
124.501
128.586
132.741
136.962
141.248
145.594
149.997
154.451
158.954
163.5
168.084
172.702
177.347
182.014
186.697
191.389
196.083
200.772
205.448
210.102
214.726
219.313
223.853
228.338
232.76
237.109
241.377
245.554
249.633
253.603
257.456
261.183
264.774
268.222
271.518
274.653
277.619
280.41
283.016
285.433
287.652
289.67
291.479
293.078
294.46
295.625
296.569
297.293
297.795
298.049
298.095
297.922
297.537
296.943
296.145
295.146
293.953
292.572
291.011
289.279
287.385
285.339
283.151
280.835
278.402
275.864
273.234
270.524
267.748
264.917
262.044
259.139
256.215
253.281
250.348
247.425
244.521
241.644
238.801
235.999
233.245
230.544
227.9
225.316
222.794
220.337
217.945
215.616
213.349
211.14
208.985
206.88
204.822
202.809
200.831
198.874
196.921
194.957
192.971
190.958
188.921
186.881
184.873
182.997
181.273
179.791
12.5425
5.76822
4.54143
4.22081
4.18579
4.29274
4.48809
4.746
5.05274
5.40001
5.78215
6.19513
6.63601
7.10277
7.5942
8.10981
8.64969
9.21447
9.80512
10.4229
11.0693
11.7458
12.4541
13.1962
13.9737
14.7885
15.6421
16.5361
17.4718
18.4505
19.4737
20.5425
21.6583
22.8224
24.0357
25.2995
26.6148
27.9831
29.4056
30.8839
32.4196
34.0145
35.6701
37.3883
39.1708
41.0196
42.9364
44.9231
46.9817
49.1141
51.3223
53.6083
55.974
58.4214
60.9523
63.5687
66.2722
69.0648
71.9478
74.9229
77.9915
81.1547
84.4136
87.7691
91.222
94.7725
98.421
102.167
106.012
109.953
113.99
118.122
122.347
126.663
131.069
135.561
140.136
144.791
149.523
154.327
159.198
164.132
169.124
174.168
179.259
184.389
189.552
194.742
199.951
205.171
210.394
215.611
220.813
225.992
231.137
236.239
241.29
246.279
251.196
256.032
260.776
265.42
269.952
274.362
278.641
282.779
286.766
290.592
294.248
297.725
301.013
304.106
306.994
309.67
312.127
314.359
316.359
318.125
319.65
320.932
321.97
322.761
323.305
323.579
323.618
323.412
322.97
322.293
321.387
320.257
318.909
317.349
315.587
313.63
311.489
309.174
306.698
304.072
301.309
298.423
295.426
292.333
289.156
285.908
282.604
279.254
275.872
272.467
269.052
265.636
262.228
258.837
255.472
252.139
248.846
245.598
242.401
239.259
236.174
233.151
230.191
227.293
224.458
221.684
218.969
216.309
213.703
211.147
208.636
206.159
203.706
201.264
198.826
196.389
193.957
191.549
189.198
186.982
184.896
182.971
13.7377
6.3251
4.94205
4.55532
4.48608
4.56825
4.74393
4.98437
5.27453
5.60562
5.97193
6.36958
6.79585
7.24892
7.72768
8.23168
8.76106
9.31645
9.89881
10.5094
11.1496
11.8205
12.5238
13.2615
14.0353
14.847
15.6984
16.591
17.5264
18.5062
19.5319
20.6048
21.7265
22.8984
24.1219
25.3982
26.7297
28.1181
29.5651
31.0726
32.6426
34.2771
35.9782
37.7481
39.5889
41.5031
43.4928
45.5606
47.7088
49.9399
52.2564
54.6608
57.1557
59.7435
62.4266
65.2075
68.0885
71.0719
74.1597
77.3539
80.6565
84.0689
87.5928
91.2292
94.9793
98.8436
102.823
106.916
111.125
115.447
119.882
124.429
129.085
133.849
138.718
143.688
148.757
153.92
159.172
164.509
169.926
175.417
180.974
186.593
192.265
197.983
203.74
209.526
215.333
221.153
226.974
232.788
238.584
244.352
250.08
255.758
261.376
266.923
272.387
277.757
283.023
288.173
293.196
298.081
302.817
307.392
311.797
316.021
320.054
323.885
327.506
330.907
334.08
337.016
339.707
342.148
344.331
346.252
347.906
349.29
350.402
351.239
351.8
352.069
352.073
351.807
351.274
350.481
349.433
348.134
346.592
344.813
342.807
340.582
338.149
335.52
332.706
329.72
326.577
323.29
319.874
316.342
312.708
308.988
305.194
301.34
297.439
293.502
289.542
285.569
281.594
277.625
273.672
269.743
265.845
261.985
258.17
254.406
250.696
247.044
243.455
239.93
236.472
233.079
229.753
226.492
223.297
220.165
217.094
214.077
211.108
208.177
205.279
202.413
199.583
196.806
194.109
191.551
189.108
186.778
14.7013
6.78321
5.26656
4.81991
4.71798
4.77581
4.93163
5.15419
5.4273
5.74167
6.09153
6.47307
6.88375
7.32201
7.78688
8.27748
8.79428
9.33811
9.91006
10.5115
11.1444
11.8086
12.506
13.2384
14.0074
14.8151
15.663
16.5531
17.487
18.4665
19.4933
20.5692
21.6959
22.8753
24.109
25.3992
26.7497
28.161
29.6354
31.1761
32.7853
34.4657
36.2197
38.0502
39.9596
41.9509
44.027
46.1909
48.4454
50.7939
53.2392
55.7846
58.4333
61.1882
64.0525
67.0292
70.1212
73.3313
76.6622
80.1164
83.6961
87.4035
91.2404
95.2083
99.3084
103.542
107.909
112.409
117.043
121.81
126.709
131.737
136.893
142.174
147.577
153.097
158.732
164.475
170.321
176.265
182.3
188.419
194.614
200.878
207.201
213.575
219.991
226.438
232.907
239.386
245.864
252.33
258.772
265.178
271.536
277.834
284.059
290.199
296.241
302.175
307.986
313.663
319.193
324.565
329.766
334.784
339.609
344.228
348.631
352.808
356.749
360.443
363.881
367.056
369.959
372.583
374.921
376.968
378.72
380.172
381.323
382.171
382.712
382.94
382.871
382.501
381.838
380.886
379.653
378.142
376.363
374.321
372.027
369.489
366.719
363.729
360.531
357.14
353.57
349.835
345.95
341.93
337.79
333.546
329.212
324.802
320.33
315.81
311.252
306.669
302.072
297.471
292.876
288.295
283.738
279.213
274.727
270.286
265.898
261.567
257.299
253.099
248.97
244.915
240.936
237.037
233.218
229.481
225.826
222.25
218.748
215.316
211.951
208.651
205.42
202.272
199.227
196.331
193.541
190.84
15.4343
7.14204
5.51626
5.01721
4.88491
4.91946
5.05581
5.26067
5.51686
5.81469
6.14826
6.51377
6.9087
7.332
7.78358
8.26254
8.76871
9.30258
9.86496
10.4569
11.0793
11.7335
12.4217
13.1457
13.9074
14.7087
15.5517
16.4382
17.3702
18.3499
19.3793
20.4605
21.5958
22.7873
24.0373
25.3476
26.7203
28.1584
29.6661
31.2469
32.904
34.6405
36.4594
38.364
40.3574
42.4432
44.6249
46.9061
49.2905
51.7818
54.3839
57.1006
59.9358
62.8931
65.9763
69.1892
72.5351
76.0176
79.6397
83.4046
87.3149
91.3731
95.5812
99.9412
104.454
109.121
113.943
118.919
124.05
129.333
134.768
140.352
146.082
151.955
157.967
164.113
170.388
176.786
183.3
189.922
196.646
203.463
210.363
217.337
224.374
231.465
238.597
245.759
252.94
260.126
267.304
274.463
281.587
288.664
295.679
302.619
309.47
316.218
322.85
329.351
335.709
341.909
347.939
353.785
359.435
364.875
370.095
375.082
379.825
384.313
388.535
392.482
396.145
399.514
402.582
405.341
407.785
409.909
411.707
413.176
414.313
415.118
415.588
415.723
415.529
415.002
414.154
412.993
411.524
409.752
407.685
405.332
402.701
399.803
396.649
393.252
389.625
385.783
381.74
377.512
373.114
368.563
363.873
359.061
354.143
349.133
344.047
338.898
333.698
328.462
323.199
317.922
312.641
307.366
302.107
296.873
291.673
286.515
281.407
276.356
271.371
266.457
261.621
256.869
252.206
247.637
243.167
238.801
234.542
230.389
226.343
222.4
218.559
214.821
211.187
207.668
204.277
201.049
197.927
194.888
15.9484
7.40567
5.69575
5.15273
4.99312
5.00612
5.12391
5.31173
5.55164
5.8335
6.15186
6.504
6.88624
7.29692
7.73478
8.19892
8.69056
9.21057
9.75985
10.3395
10.9509
11.596
12.2762
12.9935
13.7497
14.5469
15.3873
16.2732
17.2068
18.1908
19.2274
20.3194
21.4691
22.6796
23.9538
25.2941
26.7027
28.1822
29.7365
31.3718
33.0923
34.9023
36.8063
38.8077
40.9103
43.1181
45.4355
47.8669
50.4167
53.0894
55.8897
58.8222
61.8912
65.1014
68.457
71.9626
75.622
79.4393
83.4181
87.5618
91.8734
96.3556
101.011
105.84
110.846
116.028
121.387
126.922
132.633
138.518
144.573
150.798
157.186
163.735
170.438
177.29
184.285
191.413
198.669
206.041
213.522
221.1
228.766
236.507
244.311
252.165
260.058
267.974
275.9
283.822
291.725
299.594
307.414
315.169
322.845
330.424
337.893
345.237
352.439
359.485
366.36
373.051
379.542
385.82
391.872
397.684
403.245
408.541
413.562
418.297
422.735
426.866
430.682
434.175
437.335
440.156
442.632
444.758
446.529
447.943
448.996
449.687
450.018
449.989
449.602
448.85
447.755
446.322
444.557
442.466
440.056
437.336
434.317
431.007
427.42
423.569
419.467
415.129
410.57
405.807
400.855
395.732
390.453
385.036
379.496
373.85
368.113
362.3
356.424
350.499
344.537
338.551
332.551
326.549
320.556
314.582
308.637
302.731
296.874
291.075
285.343
279.689
274.121
268.647
263.276
258.017
252.878
247.866
242.988
238.248
233.648
229.188
224.869
220.69
216.654
212.766
209.035
205.484
202.047
198.705
16.2649
7.58427
5.8127
5.23426
5.05069
5.0449
5.14511
5.31718
5.54355
5.81271
6.11802
6.45472
6.82098
7.21601
7.63932
8.0912
8.57173
9.08154
9.62155
10.193
10.7974
11.4365
12.1121
12.8265
13.5816
14.38
15.224
16.1162
17.0594
18.0567
19.1117
20.2265
21.404
22.6474
23.9597
25.3412
26.7988
28.3384
29.9651
31.6837
33.4992
35.4164
37.4411
39.5779
41.8314
44.2065
46.7086
49.3428
52.1146
55.0292
58.0919
61.3082
64.6832
68.222
71.9297
75.8109
79.8704
84.1122
88.5404
93.1583
97.9691
102.975
108.179
113.581
119.183
124.984
130.985
137.184
143.578
150.166
156.943
163.906
171.048
178.364
185.847
193.489
201.282
209.217
217.283
225.47
233.766
242.159
250.636
259.184
267.788
276.434
285.107
293.79
302.469
311.127
319.747
328.314
336.81
345.217
353.52
361.7
369.742
377.629
385.345
392.874
400.201
407.309
414.185
420.814
427.183
433.278
439.088
444.599
449.801
454.684
459.237
463.452
467.319
470.832
473.982
476.763
479.171
481.201
482.849
484.111
484.986
485.475
485.578
485.305
484.632
483.58
482.163
480.386
478.257
475.779
472.963
469.817
466.351
462.576
458.505
454.15
449.527
444.65
439.534
434.197
428.655
422.924
417.023
410.968
404.777
398.465
392.05
385.546
378.969
372.331
365.647
358.928
352.188
345.438
338.69
331.956
325.247
318.575
311.951
305.386
298.893
292.483
286.167
279.958
273.867
267.906
262.088
256.422
250.919
245.587
240.431
235.454
230.657
226.042
221.608
217.36
213.297
209.438
205.707
202.097
16.3769
7.67745
5.87165
5.26842
5.06486
5.04408
5.13144
5.29087
5.50254
5.75638
6.04693
6.37093
6.72609
7.1111
7.52541
7.96909
8.44256
8.94663
9.48237
10.0511
10.6546
11.2948
11.9738
12.6943
13.4594
14.271
15.1318
16.045
17.0138
18.0414
19.13
20.2821
21.5034
22.7988
24.1732
25.632
27.1802
28.8236
30.568
32.419
34.3826
36.465
38.6729
41.0113
43.4866
46.105
48.8729
51.7966
54.8824
58.1364
61.5644
65.1723
68.9659
72.9506
77.1318
81.5142
86.1026
90.901
95.9129
101.142
106.589
112.258
118.148
124.261
130.596
137.152
143.927
150.917
158.12
165.531
173.144
180.953
188.951
197.13
205.48
213.992
222.656
231.46
240.391
249.437
258.585
267.819
277.125
286.488
295.89
305.317
314.75
324.172
333.566
342.913
352.197
361.399
370.5
379.483
388.328
397.018
405.536
413.864
421.985
429.882
437.541
444.945
452.079
458.93
465.484
471.727
477.649
483.237
488.482
493.373
497.902
502.06
505.841
509.237
512.243
514.853
517.064
518.871
520.273
521.266
521.851
522.027
521.806
521.166
520.115
518.675
516.85
514.647
512.074
509.138
505.847
502.211
498.239
493.943
489.335
484.429
479.24
473.783
468.073
462.126
455.962
449.595
443.044
436.328
429.462
422.465
415.354
408.142
400.848
393.483
386.063
378.601
371.109
363.601
356.089
348.587
341.107
333.663
326.266
318.931
311.672
304.503
297.438
290.492
283.68
277.017
270.52
264.202
258.078
252.159
246.453
240.966
235.702
230.66
225.842
221.247
216.87
212.722
208.724
204.884
16.3462
7.69423
5.87982
5.26427
5.04868
5.01605
5.08896
5.23461
5.43487
5.67936
5.96193
6.27904
6.62854
7.00932
7.42099
7.86379
8.33848
8.84641
9.38872
9.96675
10.5826
11.2385
11.937
12.6808
13.4718
14.3119
15.2063
16.1594
17.1755
18.2592
19.4157
20.6498
21.9665
23.3715
24.8709
26.4714
28.1793
30.0013
31.9443
34.0153
36.2214
38.5701
41.0683
43.7233
46.5428
49.5345
52.7063
56.066
59.6202
63.375
67.3366
71.5107
75.9028
80.5181
85.3614
90.4368
95.748
101.298
107.089
113.123
119.4
125.921
132.684
139.688
146.93
154.407
162.115
170.047
178.198
186.561
195.128
203.889
212.836
221.958
231.244
240.68
250.255
259.954
269.764
279.669
289.654
299.703
309.798
319.922
330.059
340.189
350.295
360.358
370.358
380.277
390.096
399.797
409.36
418.765
427.995
437.031
445.855
454.449
462.796
470.881
478.687
486.199
493.404
500.286
506.834
513.035
518.879
524.355
529.454
534.169
538.49
542.413
545.93
549.038
551.731
554.007
555.862
557.295
558.306
558.888
559.047
558.795
558.103
556.984
555.456
553.524
551.196
548.478
545.381
541.91
538.073
533.881
529.344
524.472
519.278
513.777
507.982
501.908
495.572
488.99
482.178
475.154
467.936
460.542
452.99
445.297
437.48
429.556
421.539
413.445
405.288
397.082
388.839
380.576
372.303
364.037
355.792
347.581
339.419
331.321
323.304
315.385
307.581
299.908
292.387
285.035
277.872
270.917
264.187
257.696
251.457
245.479
239.767
234.321
229.139
224.221
219.554
215.148
210.913
206.887
16.235
7.67589
5.86024
5.23377
5.00487
4.96151
5.02716
5.16726
5.36337
5.60542
5.88776
6.20753
6.56217
6.95067
7.37299
7.82965
8.32146
8.84932
9.41297
10.0161
10.662
11.3539
12.0952
12.89
13.7428
14.6581
15.6403
16.695
17.8279
19.0452
20.3536
21.7598
23.2706
24.8935
26.6364
28.5074
30.5148
32.6671
34.9727
37.4399
40.0771
42.892
45.8917
49.0862
52.4846
56.0963
59.9316
64.0012
68.309
72.8594
77.6569
82.7055
88.0088
93.57
99.3915
105.475
111.821
118.43
125.301
132.432
139.82
147.463
155.355
163.491
171.865
180.47
189.298
198.341
207.588
217.031
226.658
236.457
246.417
256.523
266.763
277.123
287.586
298.139
308.765
319.447
330.169
340.913
351.662
362.397
373.101
383.755
394.34
404.836
415.226
425.488
435.606
445.561
455.332
464.902
474.253
483.365
492.223
500.808
509.105
517.099
524.774
532.118
539.115
545.755
552.025
557.915
563.416
568.52
573.218
577.505
581.374
584.823
587.845
590.439
592.603
594.332
595.631
596.494
596.937
596.927
596.516
595.63
594.327
592.603
590.464
587.919
584.973
581.636
577.916
573.818
569.352
564.528
559.355
553.843
548.006
541.857
535.41
528.679
521.68
514.429
506.942
499.237
491.331
483.242
474.989
466.588
458.056
449.411
440.667
431.841
422.946
413.997
405.006
395.99
386.962
377.938
368.934
359.966
351.048
342.2
333.438
324.783
316.255
307.874
299.661
291.642
283.836
276.267
268.956
261.92
255.17
248.717
242.573
236.741
231.221
226.006
221.082
216.453
212.025
207.873
15.9756
7.60423
5.80384
5.17783
4.94995
4.90894
4.97911
5.12639
5.33222
5.58675
5.88422
6.22062
6.59427
7.00589
7.4563
7.9469
8.47965
9.05724
9.6829
10.3598
11.0921
11.8845
12.7423
13.6715
14.6785
15.77
16.9532
18.2358
19.6259
21.1325
22.7646
24.532
26.4444
28.5121
30.7455
33.1551
35.7512
38.5444
41.5446
44.7616
48.2043
51.8814
55.8013
59.9726
64.4034
69.102
74.0758
79.3347
84.8799
90.71
96.8241
103.221
109.899
116.857
124.089
131.594
139.364
147.397
155.683
164.218
172.991
181.997
191.224
200.664
210.306
220.139
230.153
240.335
250.675
261.158
271.772
282.504
293.341
304.268
315.27
326.334
337.443
348.582
359.736
370.889
382.022
393.122
404.169
415.147
426.038
436.826
447.491
458.018
468.387
478.581
488.582
498.373
507.937
517.256
526.313
535.093
543.578
551.755
559.607
567.123
574.288
581.092
587.521
593.566
599.216
604.465
609.304
613.727
617.727
621.3
624.445
627.159
629.437
631.282
632.693
633.66
634.211
634.309
634.02
633.261
632.073
630.46
628.43
625.987
623.137
619.886
616.243
612.215
607.811
603.036
597.897
592.404
586.566
580.393
573.897
567.09
559.987
552.601
544.945
537.036
528.889
520.52
511.948
503.189
494.261
485.181
475.967
466.634
457.198
447.675
438.079
428.424
418.724
408.993
399.249
389.508
379.787
370.102
360.471
350.915
341.452
332.106
322.899
313.854
304.993
296.333
287.911
279.758
271.896
264.35
257.152
250.31
243.821
237.688
231.906
226.469
221.356
216.569
212.004
207.781
15.6798
7.49219
5.73018
5.12474
4.91428
4.89119
4.98067
5.14651
5.37427
5.65575
5.98668
6.36567
6.79207
7.26693
7.79241
8.37164
9.0086
9.70819
10.476
11.318
12.2411
13.2532
14.363
15.5801
16.9146
18.3774
19.98
21.7345
23.6537
25.7507
28.0385
30.5305
33.24
36.1804
39.3641
42.8031
46.5084
50.4905
54.7589
59.321
64.1828
69.3497
74.8264
80.6162
86.7205
93.1419
99.8811
106.94
114.304
121.962
129.903
138.118
146.595
155.325
164.295
173.494
182.911
192.533
202.35
212.348
222.517
232.843
243.316
253.923
264.651
275.49
286.427
297.45
308.547
319.707
330.916
342.164
353.438
364.724
376.011
387.286
398.535
409.745
420.904
431.996
443.007
453.925
464.733
475.417
485.962
496.353
506.575
516.612
526.45
536.072
545.463
554.608
563.492
572.099
580.416
588.427
596.118
603.477
610.491
617.149
623.441
629.357
634.885
640.018
644.747
649.068
652.976
656.465
659.529
662.165
664.378
666.166
667.52
668.452