/*--------------------------------*- C++ -*----------------------------------*\
  =========                 |
  \\      /  F ield         | OpenFOAM: The Open Source CFD Toolbox
   \\    /   O peration     | Website:  https://openfoam.org
    \\  /    A nd           | Version:  12
     \\/     M anipulation  |
\*---------------------------------------------------------------------------*/
FoamFile
{
    format      ascii;
    class       volScalarField;
    location    "200";
    object      k;
}
// * * * * * * * * * * * * * * * * * * * * * * * * * * * * * * * * * * * * * //

dimensions      [0 2 -2 0 0 0 0];

internalField   nonuniform List<scalar> 
12225
(
0.362813
0.343993
0.327744
0.30982
0.295399
0.283484
0.275512
0.270285
0.27034
0.271887
0.276057
0.280719
0.289892
0.295787
0.306721
0.313334
0.32566
0.33049
0.440186
0.468698
0.461605
0.44837
0.450349
0.458314
0.474543
0.498554
0.5244
0.55214
0.580766
0.606204
0.633891
0.653956
0.679868
0.693209
0.718474
0.72513
0.390541
0.417873
0.420231
0.416826
0.411628
0.407804
0.408019
0.410037
0.414559
0.4214
0.430736
0.439722
0.451207
0.461175
0.472899
0.483607
0.493677
0.506156
0.377546
0.386982
0.391406
0.391342
0.390222
0.387896
0.385662
0.384081
0.382883
0.382898
0.383358
0.384384
0.386286
0.388469
0.39093
0.39427
0.396588
0.40105
0.374561
0.37609
0.378412
0.378665
0.378263
0.377205
0.375488
0.373738
0.37201
0.370455
0.369256
0.36811
0.367382
0.366807
0.366447
0.366347
0.36637
0.366728
0.373814
0.37271
0.372645
0.372384
0.371761
0.370817
0.369553
0.368083
0.366571
0.364976
0.363528
0.362063
0.360755
0.359529
0.358397
0.35743
0.356444
0.355791
0.373782
0.371742
0.370386
0.369287
0.368234
0.367114
0.365915
0.364587
0.363238
0.361808
0.360422
0.359023
0.357678
0.356382
0.355121
0.353966
0.352794
0.351805
0.37382
0.37156
0.369634
0.367977
0.366501
0.365108
0.363775
0.362429
0.361107
0.359766
0.35845
0.357144
0.355863
0.354622
0.3534
0.352249
0.351098
0.350052
0.373832
0.371554
0.369449
0.367525
0.365777
0.364154
0.362645
0.361199
0.359817
0.358473
0.35717
0.355902
0.354667
0.353475
0.352307
0.351195
0.350096
0.349072
0.373831
0.37156
0.369418
0.367405
0.365529
0.363773
0.362133
0.360585
0.359122
0.357728
0.356394
0.355118
0.353888
0.35271
0.351569
0.350481
0.349419
0.34842
0.373829
0.37156
0.369413
0.367378
0.365458
0.363645
0.361937
0.360324
0.358798
0.357353
0.355979
0.354672
0.353424
0.352235
0.351094
0.350008
0.348959
0.347968
0.373828
0.371558
0.369409
0.367371
0.365439
0.363609
0.361876
0.360234
0.358677
0.357201
0.3558
0.354468
0.3532
0.351994
0.350842
0.349747
0.348695
0.3477
0.373827
0.371556
0.369405
0.367365
0.36543
0.363593
0.361851
0.360197
0.358626
0.357134
0.355715
0.354368
0.353084
0.351864
0.3507
0.349594
0.348535
0.347531
0.373826
0.371555
0.369401
0.36736
0.365422
0.363583
0.361837
0.360178
0.3586
0.357101
0.355674
0.354317
0.353024
0.351794
0.350622
0.349506
0.34844
0.347427
0.373826
0.371553
0.369398
0.367355
0.365416
0.363575
0.361826
0.360164
0.358584
0.357081
0.355651
0.35429
0.352993
0.351758
0.35058
0.349459
0.348388
0.347369
0.373826
0.371552
0.369396
0.367351
0.36541
0.363567
0.361817
0.360153
0.358572
0.357067
0.355634
0.354271
0.352972
0.351734
0.350554
0.34943
0.348357
0.347334
0.373825
0.371551
0.369394
0.367348
0.365406
0.363562
0.36181
0.360145
0.358562
0.357055
0.355621
0.354256
0.352955
0.351716
0.350535
0.349408
0.348334
0.347309
0.373825
0.371551
0.369393
0.367346
0.365403
0.363558
0.361805
0.360139
0.358555
0.357047
0.355612
0.354246
0.352944
0.351703
0.350521
0.349393
0.348317
0.347291
0.373825
0.37155
0.369393
0.367346
0.365402
0.363557
0.361804
0.360137
0.358552
0.357044
0.355608
0.354241
0.352938
0.351697
0.350514
0.349385
0.348308
0.347281
0.373825
0.371551
0.369393
0.367347
0.365404
0.363559
0.361806
0.36014
0.358555
0.357047
0.355611
0.354244
0.352942
0.351701
0.350517
0.349389
0.348312
0.347285
0.373825
0.371551
0.369395
0.367349
0.365407
0.363563
0.361811
0.360146
0.358562
0.357055
0.355621
0.354256
0.352955
0.351716
0.350534
0.349408
0.348333
0.347308
0.373826
0.371552
0.369397
0.367352
0.365412
0.363571
0.361822
0.360161
0.358583
0.357083
0.355657
0.354299
0.353007
0.351775
0.350603
0.349484
0.348418
0.347399
0.373826
0.371554
0.369399
0.367359
0.365429
0.363603
0.361875
0.36024
0.358691
0.35722
0.355823
0.354494
0.353227
0.352019
0.350866
0.349763
0.348711
0.347701
0.373828
0.371551
0.369412
0.367417
0.365556
0.363819
0.362189
0.360651
0.359189
0.357794
0.356456
0.355172
0.353936
0.352746
0.351601
0.350496
0.349437
0.348411
0.373824
0.371554
0.369604
0.367892
0.366339
0.364892
0.363495
0.362122
0.360761
0.359414
0.358081
0.35677
0.355489
0.354238
0.35303
0.351856
0.350735
0.349646
0.373788
0.371991
0.371112
0.370265
0.36936
0.368312
0.367049
0.365631
0.364122
0.362576
0.361031
0.359524
0.358075
0.356684
0.355383
0.354143
0.353011
0.351925
0.374338
0.375569
0.377776
0.377861
0.37729
0.375889
0.373838
0.371644
0.369508
0.367485
0.365667
0.364086
0.362713
0.361537
0.360612
0.35982
0.359291
0.358803
0.379003
0.39432
0.398268
0.396583
0.392548
0.38761
0.383646
0.38046
0.37827
0.376855
0.3765
0.376744
0.377417
0.378693
0.380444
0.382424
0.384828
0.387139
0.408413
0.427548
0.422415
0.411062
0.40223
0.397926
0.39856
0.401119
0.405988
0.41304
0.420997
0.429828
0.438835
0.448189
0.457305
0.466548
0.475318
0.484176
0.366042
0.353412
0.341986
0.330209
0.318982
0.308382
0.299409
0.291675
0.285405
0.280334
0.276684
0.273868
0.272314
0.271175
0.271213
0.271474
0.272191
0.273391
0.00152646
0.00745895
0.0132976
0.0188179
0.0246594
0.0308931
0.0375718
0.0446691
0.0520631
0.0596129
0.0671625
0.0745963
0.081808
0.0887341
0.095314
0.101519
0.107317
0.1127
0.117649
0.122158
0.126186
0.129669
0.132497
0.134542
0.135241
0.134042
0.130027
0.122054
0.124653
0.128058
0.134686
0.144148
0.157932
0.153665
0.15015
0.147577
0.143367
0.15406
0.160007
0.168185
0.175666
0.183741
0.191788
0.200105
0.208533
0.217158
0.225925
0.234872
0.243969
0.253245
0.262672
0.272278
0.282036
0.291971
0.302059
0.312324
0.322738
0.333326
0.344061
0.354965
0.36601
0.377217
0.388558
0.400055
0.411674
0.423439
0.435315
0.447323
0.45943
0.471654
0.483961
0.496368
0.508841
0.521397
0.533998
0.546659
0.559345
0.572068
0.584793
0.597531
0.610244
0.622941
0.635586
0.648183
0.660693
0.673117
0.685415
0.69758
0.709574
0.721381
0.732969
0.744315
0.75541
0.766286
0.777041
0.78751
0.797745
0.807709
0.817398
0.826792
0.835877
0.844636
0.853053
0.861115
0.868805
0.876108
0.883012
0.889501
0.895563
0.901184
0.906356
0.911063
0.9153
0.919055
0.922325
0.925099
0.927379
0.929155
0.930432
0.931203
0.931478
0.931256
0.930529
0.929186
0.927405
0.925293
0.922684
0.919548
0.915989
0.911988
0.90758
0.902771
0.897591
0.892054
0.886189
0.88002
0.873569
0.866867
0.859948
0.852862
0.845647
0.838341
0.830972
0.82357
0.81616
0.808777
0.801447
0.794205
0.787071
0.780078
0.773242
0.766594
0.760154
0.753943
0.747974
0.742267
0.73683
0.731677
0.726814
0.722245
0.717963
0.713965
0.710244
0.706769
0.703525
0.700589
0.699556
0.70082
0.702347
0.70408
0.705995
0.707985
0.709995
0.711788
0.713256
0.71449
0.715012
0.714316
0.711336
0.686839
0.00658557
0.0220557
0.0320442
0.0397679
0.0467897
0.0538108
0.0610975
0.068708
0.0765793
0.0846006
0.0926478
0.100617
0.108422
0.116007
0.123329
0.13037
0.137115
0.143567
0.149728
0.155603
0.16119
0.166481
0.17144
0.175977
0.180003
0.183475
0.186547
0.190187
0.197383
0.206393
0.217137
0.229164
0.241099
0.250222
0.263098
0.273631
0.283762
0.296078
0.308414
0.321467
0.334755
0.348397
0.362342
0.376611
0.391185
0.406075
0.421272
0.436785
0.45261
0.468755
0.485217
0.502004
0.519112
0.53655
0.554313
0.57241
0.590833
0.609591
0.628676
0.648094
0.667837
0.687908
0.708298
0.729011
0.750034
0.771369
0.793001
0.814931
0.837144
0.859636
0.882392
0.905406
0.92866
0.952148
0.975849
0.999754
1.02384
1.0481
1.0725
1.09704
1.12169
1.14643
1.17123
1.19608
1.22095
1.2458
1.27061
1.29534
1.31996
1.34443
1.36869
1.3927
1.41639
1.43967
1.46246
1.48494
1.5071
1.5289
1.55033
1.57134
1.59191
1.61199
1.63157
1.65059
1.66903
1.68686
1.70404
1.72054
1.73633
1.75137
1.76563
1.77909
1.79171
1.80348
1.81436
1.82434
1.83339
1.84151
1.84868
1.85489
1.86013
1.86442
1.86777
1.86987
1.87092
1.87132
1.87086
1.86928
1.86678
1.86337
1.85909
1.85396
1.84802
1.84132
1.8339
1.8258
1.81708
1.80778
1.79798
1.78774
1.77715
1.76627
1.75517
1.7439
1.73254
1.72113
1.70975
1.69845
1.6873
1.67634
1.66565
1.65527
1.64525
1.63565
1.6265
1.61785
1.60974
1.60218
1.5952
1.58882
1.58304
1.57785
1.57325
1.5692
1.56567
1.56262
1.5603
1.55879
1.55771
1.55681
1.55588
1.55473
1.55314
1.55087
1.54766
1.54337
1.53763
1.5307
1.52019
1.4905
0.0131137
0.0358791
0.0486542
0.0582945
0.0668683
0.0751282
0.0834103
0.0918469
0.10045
0.109168
0.117928
0.126655
0.135291
0.143798
0.152155
0.16036
0.168425
0.176377
0.184254
0.192108
0.199995
0.207978
0.216107
0.224412
0.232918
0.241689
0.250908
0.261014
0.272524
0.285239
0.298985
0.313383
0.32795
0.342673
0.357858
0.372851
0.388194
0.404189
0.420584
0.437444
0.454702
0.472357
0.490395
0.50882
0.527626
0.546816
0.56639
0.586351
0.606698
0.627435
0.648563
0.670085
0.692001
0.714314
0.737023
0.760129
0.783631
0.80753
0.831821
0.856505
0.881576
0.907031
0.932865
0.959072
0.985645
1.01258
1.03986
1.06748
1.09543
1.1237
1.15227
1.18113
1.21026
1.23966
1.2693
1.29916
1.32922
1.35947
1.38987
1.42042
1.45108
1.48183
1.51264
1.54348
1.57433
1.60515
1.63591
1.66657
1.6971
1.72747
1.75764
1.78756
1.8172
1.84653
1.87553
1.90418
1.93243
1.96026
1.98762
2.01447
2.04076
2.06646
2.09152
2.1159
2.13955
2.16243
2.18451
2.20572
2.22605
2.24543
2.26384
2.28124
2.29758
2.31284
2.32699
2.33999
2.35182
2.36247
2.37191
2.38013
2.38711
2.39287
2.39739
2.40064
2.40243
2.40311
2.40278
2.40114
2.3983
2.3943
2.38919
2.383
2.37577
2.36757
2.35843
2.34842
2.33761
2.32606
2.31385
2.30107
2.2878
2.27413
2.26014
2.24591
2.23151
2.21702
2.20252
2.1881
2.1738
2.15973
2.14593
2.13248
2.11944
2.10687
2.09483
2.08336
2.07251
2.0623
2.05276
2.04392
2.03576
2.0283
2.02151
2.01535
2.00978
2.00472
2.00018
1.99616
1.99245
1.98879
1.98496
1.98076
1.97596
1.97034
1.96366
1.95581
1.94664
1.93657
1.92393
1.89957
0.0199695
0.0485241
0.0638993
0.0752259
0.0850535
0.0942986
0.103383
0.112506
0.121738
0.131084
0.140508
0.149968
0.159427
0.168863
0.178269
0.187656
0.197053
0.206504
0.216066
0.225808
0.235807
0.246136
0.256851
0.267994
0.279587
0.291659
0.304277
0.317566
0.33165
0.346537
0.362173
0.378444
0.395226
0.412471
0.430135
0.448142
0.466541
0.485367
0.504605
0.524275
0.544374
0.564902
0.585858
0.607246
0.629065
0.65132
0.67401
0.69714
0.720711
0.744727
0.76919
0.794102
0.819464
0.845279
0.871547
0.898268
0.925443
0.953069
0.981145
1.00967
1.03864
1.06804
1.09788
1.12815
1.15884
1.18993
1.22143
1.25332
1.28558
1.31822
1.35119
1.38451
1.41814
1.45207
1.48628
1.52074
1.55545
1.59036
1.62546
1.66073
1.69613
1.73163
1.76721
1.80283
1.83847
1.87409
1.90965
1.94512
1.98046
2.01564
2.05063
2.08537
2.11984
2.15399
2.18779
2.2212
2.25416
2.28663
2.31857
2.34992
2.38065
2.41069
2.44
2.46853
2.49623
2.52304
2.54892
2.57382
2.5977
2.62049
2.64216
2.66266
2.68195
2.69998
2.71673
2.73216
2.74624
2.75894
2.77024
2.78012
2.78857
2.79558
2.80115
2.80529
2.80783
2.80887
2.80873
2.80711
2.80409
2.79971
2.79402
2.78706
2.77888
2.76953
2.75907
2.74758
2.73511
2.72177
2.70762
2.69276
2.67728
2.66129
2.64487
2.62811
2.61111
2.59394
2.57671
2.55949
2.54236
2.52542
2.50874
2.49239
2.47645
2.46098
2.44604
2.4317
2.41799
2.40496
2.39263
2.38102
2.37014
2.35998
2.35052
2.3417
2.33346
2.32573
2.31844
2.31154
2.30484
2.29813
2.29119
2.28382
2.27579
2.26692
2.25705
2.24611
2.23411
2.22158
2.20732
2.18588
0.0265949
0.0601157
0.0778773
0.0907845
0.10178
0.111926
0.121731
0.131455
0.141229
0.151104
0.161089
0.171173
0.181341
0.191587
0.201915
0.212345
0.22291
0.233657
0.244645
0.255939
0.267608
0.279716
0.292314
0.305434
0.319093
0.333299
0.348069
0.363438
0.379442
0.396103
0.413416
0.431353
0.449874
0.468939
0.488511
0.508557
0.529059
0.550007
0.571399
0.593246
0.615555
0.638332
0.66158
0.685305
0.709508
0.734196
0.759371
0.785038
0.8112
0.837862
0.865026
0.892697
0.920875
0.949564
0.978765
1.00848
1.03871
1.06945
1.1007
1.13246
1.16473
1.1975
1.23076
1.26451
1.29874
1.33345
1.36862
1.40423
1.44028
1.47676
1.51364
1.5509
1.58854
1.62653
1.66484
1.70346
1.74235
1.7815
1.82087
1.86044
1.90018
1.94005
1.98002
2.02005
2.06012
2.10018
2.1402
2.18014
2.21996
2.25961
2.29907
2.33828
2.3772
2.41578
2.45397
2.49172
2.52899
2.56572
2.60186
2.63735
2.67215
2.70618
2.73941
2.77177
2.80321
2.83367
2.86309
2.89142
2.91861
2.94459
2.96933
2.99276
3.01484
3.03553
3.05477
3.07254
3.0888
3.10351
3.11665
3.12819
3.13812
3.14643
3.15311
3.15817
3.16154
3.1631
3.16326
3.16179
3.15873
3.15413
3.14802
3.14045
3.13147
3.12115
3.10954
3.09671
3.08276
3.06776
3.0518
3.03498
3.01741
2.99918
2.9804
2.96116
2.94156
2.92171
2.90169
2.88161
2.86155
2.84161
2.82187
2.80242
2.78333
2.76468
2.74654
2.72896
2.71201
2.69573
2.68014
2.66527
2.65113
2.63771
2.62498
2.61289
2.6014
2.59041
2.57984
2.5696
2.55953
2.54945
2.53914
2.52843
2.51711
2.50503
2.49208
2.47827
2.46371
2.44894
2.43305
2.41241
0.0327872
0.0705151
0.0904179
0.104783
0.116871
0.127863
0.138341
0.14862
0.158874
0.169202
0.179649
0.190238
0.200976
0.211874
0.222946
0.234217
0.245722
0.257505
0.269618
0.282117
0.295059
0.308494
0.322464
0.336997
0.352106
0.367798
0.384077
0.400951
0.418431
0.436527
0.45524
0.474564
0.494485
0.514984
0.536036
0.55762
0.579717
0.602314
0.625408
0.649003
0.673105
0.697719
0.722852
0.748509
0.774696
0.801419
0.828684
0.856496
0.88486
0.913783
0.943268
0.97332
1.00394
1.03514
1.06692
1.09927
1.1322
1.16572
1.19982
1.23449
1.26975
1.30557
1.34196
1.37891
1.41641
1.45446
1.49304
1.53213
1.57173
1.61183
1.65239
1.6934
1.73485
1.7767
1.81894
1.86154
1.90447
1.9477
1.99121
2.03495
2.07889
2.12301
2.16725
2.21159
2.25598
2.30039
2.34477
2.38907
2.43326
2.47729
2.52111
2.56467
2.60791
2.65079
2.69325
2.73523
2.77668
2.81755
2.85777
2.89729
2.93604
2.97397
3.01102
3.04712
3.08221
3.11624
3.14913
3.18083
3.21128
3.24042
3.26819
3.29453
3.31939
3.34272
3.36448
3.38461
3.40307
3.41983
3.43486
3.44812
3.4596
3.46928
3.47716
3.48323
3.48747
3.48972
3.49028
3.48906
3.48607
3.48135
3.47492
3.46684
3.45715
3.44593
3.43324
3.41915
3.40375
3.38713
3.36938
3.3506
3.33091
3.3104
3.28919
3.26738
3.24508
3.22239
3.19943
3.17629
3.15307
3.12987
3.10679
3.08391
3.06133
3.03913
3.01737
2.99613
2.97546
2.95543
2.93606
2.91738
2.89941
2.88215
2.86558
2.84967
2.83436
2.81957
2.80523
2.79124
2.77745
2.7637
2.74982
2.73563
2.72096
2.7057
2.68977
2.67323
2.65626
2.63937
2.62175
2.60073
0.0383913
0.0796199
0.101385
0.117049
0.130127
0.1419
0.153003
0.163792
0.174481
0.185202
0.196034
0.207027
0.218212
0.229617
0.241265
0.253187
0.265419
0.278
0.290974
0.30439
0.318292
0.332719
0.347706
0.363276
0.379443
0.396213
0.413589
0.431574
0.450168
0.469377
0.489199
0.509634
0.530674
0.552312
0.574535
0.597332
0.62069
0.644602
0.669066
0.694084
0.719659
0.745799
0.772508
0.799796
0.827668
0.856133
0.885198
0.914871
0.945158
0.976067
1.0076
1.03978
1.07259
1.10605
1.14015
1.17492
1.21033
1.24641
1.28315
1.32054
1.35859
1.39729
1.43664
1.47663
1.51726
1.5585
1.60036
1.64282
1.68586
1.72947
1.77362
1.8183
1.86348
1.90914
1.95525
2.00178
2.0487
2.09598
2.14357
2.19146
2.23959
2.28792
2.33643
2.38505
2.43376
2.48249
2.53121
2.57986
2.6284
2.67677
2.72492
2.7728
2.82033
2.86747
2.91415
2.96032
3.00591
3.05087
3.09513
3.13863
3.18131
3.22309
3.26391
3.30371
3.34242
3.37997
3.41631
3.45135
3.48504
3.51731
3.5481
3.57735
3.605
3.63099
3.65526
3.67778
3.69848
3.71733
3.73429
3.74932
3.76241
3.77353
3.78266
3.78981
3.79497
3.798
3.79905
3.79817
3.79533
3.79055
3.78387
3.77533
3.76499
3.75292
3.73918
3.72384
3.70701
3.68875
3.66919
3.64841
3.62654
3.60367
3.57993
3.55543
3.53027
3.50459
3.47848
3.45206
3.42543
3.3987
3.37198
3.34535
3.31891
3.29276
3.26697
3.24163
3.21679
3.19252
3.16886
3.14586
3.12355
3.10193
3.08101
3.06076
3.04114
3.0221
3.00357
2.98545
2.96764
2.94999
2.93235
2.91458
2.89653
2.87811
2.85929
2.84016
2.82089
2.80195
2.78257
2.76058
0.0432955
0.0873691
0.110703
0.127476
0.141417
0.153885
0.165552
0.176806
0.187887
0.198952
0.210109
0.22143
0.232967
0.24476
0.256846
0.269259
0.282036
0.295213
0.308831
0.322927
0.337538
0.352696
0.368428
0.384755
0.401689
0.41924
0.437411
0.456203
0.475619
0.495659
0.516323
0.537612
0.559523
0.582053
0.605199
0.628956
0.65332
0.678287
0.70386
0.730039
0.756832
0.784243
0.812283
0.840958
0.870279
0.900254
0.930894
0.962207
0.994204
1.02689
1.06028
1.09438
1.1292
1.16474
1.20101
1.23802
1.27577
1.31426
1.3535
1.39348
1.43422
1.47569
1.5179
1.56084
1.60451
1.64888
1.69396
1.73973
1.78616
1.83325
1.88096
1.92928
1.97818
2.02763
2.0776
2.12806
2.17897
2.2303
2.282
2.33404
2.38636
2.43894
2.49171
2.54463
2.59765
2.65072
2.70378
2.75677
2.80965
2.86235
2.91482
2.96698
3.01878
3.07015
3.12103
3.17134
3.22104
3.27004
3.31829
3.36572
3.41225
3.45782
3.50236
3.5458
3.58806
3.62908
3.66879
3.70712
3.74399
3.77935
3.81311
3.84523
3.87562
3.90424
3.93101
3.95589
3.97882
3.99975
4.01865
4.03547
4.05018
4.06276
4.07319
4.08145
4.08755
4.09139
4.09301
4.09252
4.08988
4.08509
4.0782
4.06925
4.05829
4.04539
4.03062
4.01405
3.99578
3.97589
3.95448
3.93166
3.90755
3.88225
3.85589
3.82858
3.80044
3.7716
3.74217
3.71226
3.682
3.65149
3.62084
3.59016
3.55954
3.5291
3.4989
3.46906
3.43963
3.4107
3.38232
3.35456
3.32745
3.30102
3.2753
3.25028
3.22595
3.20228
3.17921
3.15668
3.1346
3.11286
3.09135
3.06992
3.04849
3.02697
3.00536
2.98374
2.96231
2.94142
2.9203
2.89719
0.047431
0.0937474
0.118351
0.136036
0.1507
0.163762
0.175922
0.187586
0.199013
0.210382
0.221815
0.233404
0.245217
0.257307
0.269718
0.282491
0.295663
0.309269
0.323345
0.337924
0.353036
0.368709
0.384964
0.401821
0.419291
0.437386
0.45611
0.475468
0.495463
0.516097
0.537373
0.559292
0.581856
0.605066
0.628924
0.65343
0.678587
0.704396
0.730862
0.75799
0.785788
0.814265
0.843431
0.873297
0.903874
0.935173
0.967207
0.999988
1.03353
1.06784
1.10293
1.13881
1.17549
1.21299
1.2513
1.29045
1.33042
1.37124
1.4129
1.4554
1.49874
1.54292
1.58795
1.6338
1.68047
1.72795
1.77623
1.82529
1.87511
1.92567
1.97694
2.02891
2.08154
2.13479
2.18864
2.24305
2.29797
2.35336
2.40919
2.46539
2.52193
2.57875
2.6358
2.69302
2.75036
2.80775
2.86514
2.92246
2.97965
3.03664
3.09338
3.14979
3.20579
3.26133
3.31632
3.37071
3.42442
3.47738
3.52952
3.58076
3.63105
3.68029
3.72842
3.77537
3.82106
3.86542
3.90838
3.94987
3.9898
4.02812
4.06474
4.09961
4.13264
4.16378
4.19297
4.22013
4.24522
4.26818
4.28896
4.30752
4.32382
4.33784
4.34954
4.35891
4.36594
4.37059
4.37282
4.37275
4.37034
4.36557
4.35849
4.34915
4.3376
4.3239
4.30812
4.29033
4.27063
4.24909
4.22584
4.20096
4.17457
4.1468
4.11775
4.08756
4.05634
4.02423
3.99134
3.9578
3.92372
3.88923
3.85444
3.81946
3.7844
3.74938
3.71448
3.67981
3.64547
3.61153
3.57808
3.54519
3.51293
3.48133
3.45046
3.42033
3.39096
3.36235
3.33447
3.3073
3.28077
3.25481
3.22933
3.20422
3.17942
3.15487
3.13056
3.1066
3.08312
3.06041
3.03768
3.01356
0.0507657
0.098784
0.124373
0.142778
0.158022
0.17157
0.18414
0.196152
0.207877
0.219504
0.231169
0.242975
0.255001
0.267311
0.279956
0.292979
0.30642
0.320315
0.334694
0.349589
0.365027
0.381032
0.397624
0.41482
0.432634
0.451076
0.470156
0.489881
0.510256
0.531287
0.552978
0.575336
0.598366
0.622072
0.646461
0.671538
0.69731
0.723784
0.750967
0.77887
0.807503
0.836879
0.867009
0.897908
0.929589
0.962068
0.995359
1.02948
1.06444
1.10025
1.13693
1.1745
1.21296
1.25233
1.29262
1.33383
1.37598
1.41907
1.4631
1.50809
1.55402
1.60089
1.64871
1.69747
1.74715
1.79774
1.84923
1.90159
1.95482
2.00888
2.06374
2.11938
2.17576
2.23284
2.29059
2.34897
2.40791
2.46739
2.52734
2.58772
2.64847
2.70952
2.77083
2.83232
2.89393
2.9556
3.01726
3.07884
3.14026
3.20147
3.26238
3.32292
3.38301
3.44258
3.50156
3.55987
3.61743
3.67418
3.73003
3.78491
3.83875
3.89146
3.94298
3.99324
4.04214
4.08963
4.13562
4.18004
4.22282
4.26389
4.30316
4.34058
4.37607
4.40956
4.44098
4.47027
4.49736
4.52221
4.54475
4.56495
4.58275
4.59812
4.61103
4.62146
4.62938
4.63479
4.63764
4.63798
4.63582
4.63107
4.62382
4.6141
4.60197
4.5875
4.57073
4.55176
4.53065
4.50749
4.4824
4.45547
4.42682
4.39655
4.36481
4.3317
4.29736
4.26191
4.22549
4.18821
4.15021
4.11161
4.07253
4.03309
3.99342
3.95362
3.91381
3.8741
3.8346
3.79541
3.75663
3.71835
3.68066
3.64364
3.60736
3.57187
3.53722
3.50345
3.47057
3.43859
3.40749
3.37721
3.34772
3.31893
3.2908
3.26329
3.2364
3.21022
3.18485
3.16048
3.13631
3.11127
0.0533035
0.102548
0.128864
0.147806
0.163491
0.177416
0.19031
0.202602
0.214568
0.226403
0.238252
0.250225
0.262408
0.27487
0.287667
0.300848
0.314452
0.328516
0.34307
0.358144
0.373762
0.389948
0.40672
0.424096
0.442091
0.460718
0.47999
0.499917
0.520508
0.541772
0.563717
0.586355
0.609694
0.633744
0.658515
0.684019
0.710264
0.737263
0.765028
0.793572
0.82291
0.85306
0.884036
0.915857
0.948539
0.982101
1.01656
1.05193
1.08824
1.1255
1.16372
1.20292
1.24312
1.28434
1.32657
1.36984
1.41416
1.45952
1.50594
1.55342
1.60197
1.65156
1.70221
1.75391
1.80663
1.86037
1.91511
1.97083
2.0275
2.08509
2.14357
2.20292
2.26307
2.32401
2.38567
2.44801
2.51099
2.57453
2.63859
2.70311
2.76802
2.83325
2.89874
2.96442
3.03021
3.09605
3.16185
3.22755
3.29306
3.3583
3.4232
3.48768
3.55166
3.61505
3.67777
3.73976
3.80092
3.86118
3.92046
3.97869
4.03578
4.09166
4.14626
4.1995
4.2513
4.30158
4.35028
4.39732
4.44263
4.48613
4.52776
4.56743
4.60508
4.64064
4.67403
4.7052
4.73407
4.7606
4.7847
4.80635
4.82549
4.84208
4.85607
4.86746
4.8762
4.88228
4.88569
4.88642
4.88451
4.87978
4.87234
4.86226
4.84958
4.83436
4.81665
4.79652
4.77405
4.74932
4.72244
4.6935
4.66262
4.6299
4.59548
4.55948
4.52203
4.48325
4.44328
4.40226
4.3603
4.31755
4.27412
4.23016
4.18577
4.14111
4.09627
4.0514
4.00661
3.96203
3.91777
3.87395
3.83067
3.78806
3.7462
3.70519
3.66512
3.62606
3.58806
3.55117
3.51542
3.48079
3.44727
3.41482
3.38342
3.35304
3.32369
3.29543
3.26831
3.24247
3.21708
3.19132
0.0550836
0.10515
0.131953
0.151267
0.167262
0.181456
0.194586
0.207083
0.219227
0.231216
0.243196
0.255284
0.267568
0.280122
0.293005
0.306265
0.319943
0.334077
0.348696
0.36383
0.379504
0.395741
0.412562
0.429986
0.44803
0.466712
0.486046
0.506047
0.526726
0.548097
0.570173
0.592969
0.6165
0.640782
0.665827
0.691651
0.71827
0.745699
0.773955
0.803057
0.833025
0.863879
0.89564
0.928329
0.961967
0.996577
1.03218
1.06879
1.10644
1.14514
1.18491
1.22578
1.26775
1.31084
1.35507
1.40045
1.44699
1.4947
1.54358
1.59364
1.64486
1.69726
1.75082
1.80553
1.86137
1.91834
1.9764
2.03553
2.09569
2.15687
2.21901
2.28208
2.34603
2.41082
2.47638
2.54267
2.60962
2.67718
2.74527
2.81383
2.88278
2.95206
3.02159
3.09129
3.16107
3.23087
3.30059
3.37016
3.43949
3.5085
3.5771
3.6452
3.71273
3.7796
3.84571
3.911
3.97537
4.03875
4.10106
4.16222
4.22214
4.28076
4.338
4.39378
4.44803
4.50068
4.55164
4.60086
4.64826
4.69377
4.73733
4.77885
4.81827
4.85552
4.89053
4.92323
4.95356
4.98146
5.00686
5.0297
5.04995
5.06755
5.08245
5.09464
5.10408
5.11074
5.11461
5.11567
5.11398
5.10926
5.10163
5.09119
5.07798
5.06205
5.04344
5.02222
4.99845
4.97223
4.94364
4.91277
4.87974
4.84466
4.80765
4.76883
4.72834
4.68631
4.64287
4.59815
4.55229
4.50542
4.45768
4.40921
4.36013
4.3106
4.26073
4.21068
4.16058
4.11057
4.06078
4.01137
3.96245
3.91419
3.8667
3.82011
3.77456
3.73015
3.68699
3.64517
3.60475
3.56577
3.52825
3.4922
3.45761
3.42446
3.39278
3.3626
3.33392
3.30681
3.28043
3.25425
0.05618
0.106717
0.133792
0.153328
0.169511
0.183874
0.197152
0.209777
0.222031
0.234114
0.246174
0.258324
0.270654
0.283239
0.296138
0.309402
0.323073
0.337189
0.351781
0.36688
0.382511
0.3987
0.41547
0.432842
0.450838
0.469481
0.48879
0.508786
0.529474
0.550872
0.573
0.595876
0.619532
0.643987
0.669255
0.695355
0.722304
0.750126
0.778846
0.80849
0.839081
0.870646
0.903209
0.936795
0.971431
1.00714
1.04395
1.08188
1.12095
1.16119
1.20262
1.24526
1.28913
1.33423
1.3806
1.42823
1.47714
1.52734
1.57882
1.6316
1.68566
1.74099
1.7976
1.85545
1.91453
1.97482
2.03629
2.09891
2.16264
2.22743
2.29326
2.36005
2.42778
2.49637
2.56577
2.63591
2.70672
2.77814
2.85009
2.9225
2.99528
3.06836
3.14165
3.21507
3.28853
3.36195
3.43523
3.50828
3.58102
3.65336
3.72521
3.79648
3.86707
3.93691
4.0059
4.07397
4.14101
4.20696
4.27174
4.33526
4.39745
4.45823
4.51753
4.57527
4.63139
4.68582
4.73848
4.78931
4.83825
4.88522
4.93017
4.97302
5.01371
5.05217
5.08834
5.12214
5.15353
5.18242
5.20875
5.23248
5.25355
5.27189
5.28748
5.30028
5.31024
5.31735
5.32157
5.32288
5.32137
5.31664
5.30879
5.298
5.2843
5.2677
5.24826
5.22602
5.20106
5.17344
5.14325
5.11058
5.07554
5.03823
4.99877
4.95728
4.9139
4.86875
4.82197
4.7737
4.72407
4.67322
4.62129
4.56842
4.51477
4.46046
4.40567
4.35053
4.29519
4.23983
4.18458
4.12963
4.07513
4.02126
3.96818
3.91606
3.86506
3.81534
3.76706
3.72034
3.67531
3.63204
3.5906
3.55103
3.51335
3.47757
3.4437
3.41176
3.38171
3.35356
3.32648
3.30017
0.0565696
0.107278
0.134506
0.154152
0.170424
0.184861
0.198204
0.210886
0.223186
0.2353
0.247375
0.259524
0.271839
0.284393
0.297247
0.310451
0.324048
0.338078
0.352574
0.367568
0.383087
0.39916
0.415814
0.433074
0.450967
0.469519
0.488759
0.508717
0.529382
0.55079
0.572963
0.595927
0.619731
0.644387
0.669914
0.696327
0.723641
0.751908
0.781162
0.811431
0.842747
0.875139
0.908638
0.943272
0.97907
1.01606
1.05427
1.09372
1.13444
1.17646
1.21978
1.26445
1.31046
1.35784
1.4066
1.45674
1.50829
1.56123
1.61557
1.6713
1.72841
1.7869
1.84673
1.9079
1.97037
2.0341
2.09908
2.16525
2.23257
2.30099
2.37046
2.44092
2.51231
2.58457
2.65763
2.73141
2.80584
2.88084
2.95633
3.03224
3.10846
3.18492
3.26153
3.33819
3.41481
3.4913
3.56757
3.64352
3.71907
3.7941
3.86855
3.94231
4.0153
4.08741
4.15857
4.22869
4.29769
4.36548
4.43198
4.49713
4.56084
4.62304
4.68366
4.74263
4.79989
4.85538
4.90903
4.96078
5.01057
5.05834
5.10403
5.14759
5.18895
5.22805
5.26483
5.29922
5.33116
5.3606
5.38745
5.41168
5.43322
5.45201
5.46801
5.48118
5.49147
5.49886
5.5033
5.50478
5.50338
5.49862
5.49056
5.47943
5.46526
5.44807
5.42788
5.40474
5.3787
5.34983
5.3182
5.2839
5.24702
5.20767
5.16596
5.12201
5.07595
5.0279
4.97801
4.9264
4.87321
4.81859
4.76268
4.70564
4.6476
4.58874
4.5292
4.46916
4.40878
4.34824
4.28771
4.22738
4.16746
4.10813
4.0496
3.99208
3.93577
3.88087
3.82759
3.7761
3.72658
3.67914
3.63385
3.5908
3.5501
3.51179
3.47588
3.44236
3.41116
3.38225
3.35478
3.32878
0.0564724
0.107122
0.134318
0.153951
0.170213
0.18464
0.19797
0.210632
0.222906
0.234987
0.247022
0.259123
0.27138
0.283867
0.296642
0.309757
0.323256
0.33718
0.351562
0.366438
0.381839
0.397795
0.414337
0.431497
0.449301
0.46778
0.486965
0.506883
0.527565
0.549043
0.571345
0.594497
0.618535
0.64349
0.669403
0.696277
0.724131
0.753049
0.783062
0.814206
0.846515
0.880028
0.914784
0.950808
0.988129
1.02678
1.06678
1.10816
1.15096
1.19518
1.24085
1.28798
1.33658
1.38667
1.43825
1.49133
1.54591
1.60197
1.65952
1.71854
1.779
1.84089
1.90418
1.96884
2.03483
2.10211
2.17063
2.24034
2.31119
2.38313
2.45608
2.52999
2.60479
2.68039
2.75674
2.83374
2.91131
2.98938
3.06786
3.14666
3.22568
3.30484
3.38404
3.46319
3.54219
3.62096
3.69939
3.77738
3.85485
3.9317
4.00783
4.08317
4.1576
4.23106
4.30345
4.37468
4.44467
4.51336
4.58065
4.64648
4.71079
4.77349
4.83453
4.89384
4.95136
5.00705
5.06084
5.11268
5.16253
5.21032
5.25601
5.29956
5.34089
5.37997
5.41674
5.45113
5.48309
5.51255
5.53946
5.56376
5.58538
5.60428
5.62039
5.63367
5.64408
5.65156
5.6561
5.65765
5.65632
5.65151
5.64324
5.63182
5.61726
5.59956
5.57875
5.55485
5.5279
5.49797
5.46511
5.4294
5.39092
5.34978
5.30609
5.25995
5.21148
5.16083
5.1081
5.05345
4.99701
4.93892
4.87934
4.81841
4.75629
4.69316
4.62918
4.56452
4.49938
4.43394
4.3684
4.30297
4.23787
4.17334
4.10962
4.04693
3.98545
3.92546
3.86724
3.81103
3.75707
3.70553
3.65657
3.61042
3.56706
3.52655
3.4889
3.4541
3.42204
3.39264
3.36508
3.33969
0.0560401
0.106476
0.133485
0.152999
0.169151
0.183471
0.196696
0.209253
0.221421
0.233394
0.245316
0.2573
0.269433
0.281787
0.294423
0.307393
0.320743
0.334517
0.348754
0.36349
0.378761
0.394607
0.411064
0.428171
0.44597
0.464497
0.483785
0.503873
0.5248
0.546619
0.569347
0.593016
0.617664
0.643325
0.670015
0.697768
0.726671
0.756783
0.788143
0.820792
0.854765
0.890096
0.926812
0.964947
1.00453
1.0456
1.08817
1.1323
1.17798
1.22523
1.27404
1.32444
1.37641
1.42996
1.48508
1.54177
1.60001
1.65978
1.72105
1.78381
1.84802
1.91365
1.98064
2.04896
2.11856
2.18939
2.26139
2.3345
2.40865
2.48379
2.55985
2.63674
2.7144
2.79275
2.87171
2.95119
3.03112
3.1114
3.19196
3.27269
3.35351
3.43432
3.51504
3.59557
3.67581
3.75568
3.83507
3.91391
3.99208
4.0695
4.14609
4.22175
4.2964
4.36996
4.44233
4.51345
4.58322
4.65159
4.71848
4.78382
4.84757
4.90964
4.96998
5.02854
5.08527
5.14012
5.19305
5.24402
5.29299
5.3399
5.38472
5.42742
5.46794
5.50625
5.54229
5.57602
5.60737
5.63628
5.66272
5.68661
5.70789
5.72651
5.74241
5.75552
5.7658
5.77319
5.77767
5.77921
5.7779
5.77303
5.76457
5.7529
5.73801
5.71991
5.6986
5.6741
5.64643
5.61563
5.58176
5.54488
5.50507
5.46241
5.417
5.36896
5.3184
5.26544
5.2102
5.15283
5.09345
5.03222
4.96928
4.9048
4.83893
4.77185
4.70375
4.63481
4.56521
4.49514
4.4248
4.35445
4.28435
4.21478
4.14602
4.07832
4.01208
3.94756
3.88498
3.82464
3.76681
3.71172
3.65962
3.61054
3.56469
3.52215
3.48297
3.44711
3.41445
3.38488
3.35755
3.33322
0.0552109
0.105183
0.131833
0.151091
0.167022
0.181138
0.194174
0.206557
0.218564
0.230389
0.242173
0.254029
0.266041
0.278284
0.29082
0.303704
0.316987
0.330717
0.34494
0.359702
0.375048
0.39102
0.407666
0.425041
0.443206
0.462186
0.482022
0.502762
0.524447
0.547099
0.570735
0.595443
0.621289
0.648333
0.676648
0.706277
0.737271
0.769679
0.803543
0.838902
0.875788
0.914228
0.954247
0.995865
1.0391
1.08397
1.13048
1.17864
1.22844
1.27987
1.33293
1.3876
1.44386
1.5017
1.56108
1.62199
1.68438
1.74823
1.81348
1.8801
1.94804
2.01725
2.08768
2.15927
2.23197
2.30571
2.38043
2.45608
2.53258
2.60986
2.68786
2.76651
2.84572
2.92543
3.00556
3.08603
3.16675
3.24765
3.32865
3.40965
3.49057
3.57134
3.65185
3.73202
3.81176
3.891
3.96963
4.04757
4.12474
4.20105
4.27642
4.35076
4.424
4.49606
4.56687
4.63634