/*--------------------------------*- C++ -*----------------------------------*\
  =========                 |
  \\      /  F ield         | OpenFOAM: The Open Source CFD Toolbox
   \\    /   O peration     | Website:  https://openfoam.org
    \\  /    A nd           | Version:  12
     \\/     M anipulation  |
\*---------------------------------------------------------------------------*/
FoamFile
{
    format      ascii;
    class       volScalarField;
    location    "200";
    object      nut;
}
// * * * * * * * * * * * * * * * * * * * * * * * * * * * * * * * * * * * * * //

dimensions      [0 2 -1 0 0 0 0];

internalField   nonuniform List<scalar> 
12225
(
4.14924e-05
3.93409e-05
3.7483e-05
3.5433e-05
3.37839e-05
3.24211e-05
3.15094e-05
3.09116e-05
3.09178e-05
3.10953e-05
3.15707e-05
3.21067e-05
3.31497e-05
3.38505e-05
3.50492e-05
3.59208e-05
3.70949e-05
3.72827e-05
0.000332214
0.000215177
0.000179269
0.000157678
0.000146208
0.00013821
0.00013273
0.000131665
0.000129495
0.000130078
0.000129034
0.000129454
0.000128646
0.00012858
0.000128053
0.000127471
0.000127306
0.000126638
0.000668677
0.000450662
0.00035575
0.000309837
0.000275275
0.000251105
0.000231698
0.000217284
0.000202657
0.000192134
0.0001826
0.000175211
0.00016936
0.000163673
0.000160282
0.000155558
0.000153759
0.000149853
0.000801681
0.000691667
0.000572541
0.000500064
0.000449369
0.000411996
0.000380759
0.000356016
0.000333986
0.000314789
0.000298304
0.000281715
0.000270286
0.000256052
0.000248176
0.000236136
0.000230353
0.000220415
0.000839623
0.00081019
0.000740695
0.000676422
0.000623918
0.000581395
0.000545853
0.000514565
0.000489502
0.000464431
0.000445844
0.000424064
0.000409918
0.000390786
0.000379857
0.000363065
0.000354429
0.000339473
0.000850344
0.000843278
0.000819552
0.00078653
0.000750764
0.00071589
0.000685747
0.000656133
0.000632539
0.000607513
0.000588987
0.000567236
0.000552267
0.000533079
0.000520755
0.000503703
0.000493264
0.000477453
0.000851579
0.000851019
0.0008433
0.000833478
0.000817108
0.000796952
0.000777867
0.000756735
0.000738895
0.000719142
0.000703526
0.000685611
0.00067211
0.000655907
0.000644285
0.000629509
0.000619478
0.000605127
0.000851581
0.000851816
0.000850038
0.000847462
0.000841401
0.00083375
0.000824823
0.000813432
0.000802809
0.000790468
0.000779711
0.000767534
0.000757416
0.000745773
0.000736524
0.000725513
0.000717131
0.000706021
0.000851673
0.000851531
0.000851015
0.000850343
0.000848875
0.00084617
0.000843026
0.000838304
0.000833402
0.000827359
0.000821214
0.000814769
0.000808404
0.00080152
0.000795232
0.000788407
0.000782157
0.000775245
0.000851754
0.000851386
0.000851043
0.000850633
0.000850247
0.000849368
0.000848404
0.00084678
0.000844955
0.000842529
0.000839922
0.000836798
0.000833792
0.000830149
0.000826966
0.000822921
0.000819893
0.000815291
0.000851784
0.000851358
0.000851012
0.000850613
0.000850329
0.000849905
0.000849526
0.000848929
0.000848303
0.000847393
0.000846465
0.000845176
0.000843989
0.00084235
0.000840994
0.000839029
0.000837636
0.000835357
0.000851788
0.000851359
0.000850996
0.000850605
0.000850292
0.000849938
0.000849646
0.00084928
0.000848955
0.000848504
0.000848098
0.000847507
0.000846997
0.000846243
0.00084564
0.000844719
0.000844056
0.000842974
0.000851786
0.000851363
0.000850986
0.000850604
0.000850269
0.000849926
0.00084963
0.000849313
0.000849042
0.000848729
0.000848462
0.000848126
0.000847843
0.000847465
0.000847156
0.000846725
0.000846386
0.000845901
0.000851783
0.000851364
0.000850978
0.000850602
0.000850256
0.000849916
0.000849607
0.0008493
0.000849022
0.00084874
0.000848488
0.000848224
0.000847988
0.000847735
0.000847508
0.000847257
0.000847033
0.000846783
0.000851781
0.000851364
0.000850973
0.000850598
0.000850246
0.000849908
0.000849592
0.000849286
0.000849
0.000848723
0.000848463
0.000848211
0.000847975
0.000847745
0.000847528
0.000847316
0.000847115
0.000846919
0.00085178
0.000851363
0.000850969
0.000850594
0.000850239
0.000849901
0.00084958
0.000849275
0.000848984
0.000848707
0.000848443
0.000848191
0.000847951
0.000847721
0.000847502
0.000847293
0.000847093
0.000846901
0.000851779
0.000851362
0.000850967
0.000850591
0.000850234
0.000849895
0.000849572
0.000849265
0.000848973
0.000848694
0.000848428
0.000848175
0.000847933
0.000847701
0.000847481
0.000847269
0.000847067
0.000846874
0.000851779
0.000851362
0.000850965
0.000850588
0.000850231
0.00084989
0.000849567
0.000849259
0.000848965
0.000848685
0.000848418
0.000848163
0.00084792
0.000847687
0.000847465
0.000847252
0.000847049
0.000846854
0.000851779
0.000851362
0.000850965
0.000850588
0.00085023
0.000849889
0.000849565
0.000849256
0.000848962
0.000848682
0.000848414
0.000848158
0.000847914
0.00084768
0.000847457
0.000847243
0.000847039
0.000846844
0.000851779
0.000851362
0.000850966
0.000850589
0.000850231
0.000849891
0.000849567
0.000849259
0.000848965
0.000848685
0.000848417
0.000848162
0.000847917
0.000847684
0.00084746
0.000847246
0.000847041
0.000846845
0.000851779
0.000851363
0.000850967
0.000850592
0.000850235
0.000849897
0.000849573
0.000849267
0.000848972
0.000848694
0.000848424
0.000848169
0.00084792
0.000847683
0.000847451
0.000847231
0.000847013
0.000846806
0.000851778
0.000851366
0.000850968
0.000850599
0.00085024
0.000849907
0.00084958
0.000849274
0.000848964
0.000848671
0.000848365
0.000848072
0.000847756
0.000847456
0.000847123
0.000846811
0.000846457
0.000846136
0.000851777
0.000851374
0.000850972
0.000850615
0.000850241
0.000849889
0.000849478
0.000849054
0.000848529
0.000847978
0.000847301
0.000846605
0.000845767
0.000844939
0.000843955
0.000843029
0.000841918
0.00084094
0.000851803
0.000851411
0.000850971
0.000850549
0.00084986
0.000848966
0.000847609
0.000845976
0.000843904
0.000841636
0.000838955
0.000836215
0.000833117
0.000830114
0.000826763
0.00082368
0.000820184
0.000817178
0.000852151
0.000851407
0.000850234
0.000848252
0.00084447
0.000839356
0.000832761
0.000825664
0.000817963
0.000810012
0.000801619
0.000793629
0.000785333
0.000777708
0.000769745
0.000762702
0.000755125
0.000748796
0.000854237
0.000847731
0.000840116
0.000827122
0.000808703
0.000789644
0.000769974
0.000751414
0.000733306
0.000716897
0.000700936
0.000686783
0.000672832
0.000660673
0.000648381
0.000637944
0.000626956
0.000618023
0.000855503
0.000818272
0.00077619
0.000726634
0.000684929
0.000649865
0.000618467
0.000592028
0.000568387
0.000548317
0.000529694
0.000513996
0.000498757
0.000486021
0.000473207
0.000462713
0.000451627
0.00044281
0.000808905
0.000666694
0.000570502
0.000509916
0.000465631
0.000431205
0.000404146
0.000382512
0.000364203
0.000349075
0.000335947
0.000325069
0.000314512
0.000306242
0.000297965
0.000291373
0.000284287
0.000278937
0.000502078
0.000348438
0.000292685
0.000259194
0.000236331
0.000221184
0.00021155
0.000204021
0.000198485
0.000195064
0.000192222
0.000190371
0.000188586
0.000187441
0.000186169
0.000185474
0.000184557
0.000184145
7.2735e-05
7.02242e-05
6.79535e-05
6.56135e-05
6.33826e-05
6.12765e-05
5.9493e-05
5.79574e-05
5.67106e-05
5.57031e-05
5.49779e-05
5.44182e-05
5.411e-05
5.38814e-05
5.3898e-05
5.39331e-05
5.40919e-05
5.43243e-05
4.69542e-07
1.05191e-05
1.87702e-05
2.65525e-05
3.47714e-05
4.35362e-05
5.29224e-05
6.29082e-05
7.33138e-05
8.39516e-05
9.45909e-05
0.00010508
0.000115261
0.000125061
0.000134399
0.000143265
0.000151635
0.000159542
0.000166979
0.000173931
0.000180245
0.000185877
0.000190684
0.000191819
0.0001898
0.000182449
0.000168375
3.37503e-05
3.4415e-05
3.60669e-05
4.0418e-05
4.72258e-05
0.000247531
0.000240824
0.000241475
0.000213077
4.59514e-05
4.85166e-05
4.92945e-05
5.05528e-05
5.16444e-05
5.27966e-05
5.39154e-05
5.50483e-05
5.61672e-05
5.72905e-05
5.84049e-05
5.95212e-05
6.06301e-05
6.17405e-05
6.28441e-05
6.39489e-05
6.50474e-05
6.61466e-05
6.72399e-05
6.83339e-05
6.94218e-05
7.05098e-05
7.15918e-05
7.26734e-05
7.37486e-05
7.48226e-05
7.58898e-05
7.69552e-05
7.80131e-05
7.90684e-05
8.01155e-05
8.11589e-05
8.21933e-05
8.32229e-05
8.42427e-05
8.52566e-05
8.62597e-05
8.72558e-05
8.824e-05
8.92159e-05
9.01789e-05
9.1132e-05
9.20713e-05
9.29996e-05
9.39128e-05
9.48133e-05
9.56976e-05
9.65676e-05
9.74198e-05
9.82558e-05
9.90722e-05
9.98698e-05
0.000100646
0.000101401
0.000102132
0.000102838
0.000103519
0.000104175
0.000104815
0.000105432
0.000106027
0.000106598
0.000107146
0.000107669
0.000108167
0.000108639
0.000109086
0.000109505
0.000109898
0.000110262
0.000110599
0.000110906
0.000111184
0.000111432
0.000111649
0.000111836
0.000111992
0.000112115
0.000112208
0.000112267
0.000112295
0.00011229
0.000112253
0.000112183
0.00011208
0.000111945
0.000111777
0.000111568
0.00011133
0.000111071
0.000110785
0.000110457
0.000110103
0.000109717
0.000109303
0.00010886
0.00010839
0.000107893
0.000107372
0.000106827
0.00010626
0.00010567
0.000105062
0.000104435
0.000103794
0.00010314
0.000102474
0.0001018
0.000101118
0.000100431
9.97417e-05
9.90528e-05
9.83641e-05
9.76789e-05
9.69974e-05
9.63256e-05
9.56638e-05
9.50139e-05
9.43755e-05
9.37538e-05
9.31469e-05
9.25594e-05
9.19913e-05
9.14456e-05
9.0923e-05
9.04255e-05
8.99518e-05
8.95033e-05
8.90827e-05
8.8712e-05
8.86648e-05
8.86127e-05
8.85015e-05
8.84035e-05
8.83301e-05
8.82821e-05
8.82775e-05
8.8272e-05
8.82502e-05
8.82405e-05
8.82093e-05
8.80987e-05
8.78965e-05
8.64489e-05
2.03649e-06
3.84658e-05
8.1161e-05
0.000110506
0.000130105
0.000145061
0.000158096
0.000170562
0.00018298
0.000195441
0.000207837
0.000219999
0.000231755
0.000242964
0.000253502
0.000263268
0.000272149
0.000280001
0.000286591
0.000291536
0.00029422
0.000293737
0.000288798
0.000277497
0.000258875
0.000232526
0.000199894
0.000164654
0.000173117
0.000191297
0.000219461
0.000261501
0.000327836
0.000309553
0.00030948
0.000285956
0.000267772
0.000276529
0.000283426
0.000290837
0.000298512
0.000306223
0.000314108
0.000322073
0.000330139
0.000338281
0.0003465
0.000354791
0.000363153
0.000371587
0.000380093
0.000388674
0.00039733
0.000406065
0.00041488
0.000423778
0.00043276
0.000441829
0.000450986
0.000460233
0.00046957
0.000478998
0.000488518
0.00049813
0.000507833
0.000517628
0.00052751
0.000537481
0.000547537
0.000557677
0.000567897
0.000578195
0.000588568
0.000599012
0.000609524
0.000620098
0.000630732
0.000641419
0.000652157
0.000662941
0.000673766
0.000684628
0.000695523
0.000706447
0.000717395
0.000728362
0.000739341
0.000750322
0.000761293
0.00077223
0.000783095
0.000793815
0.000804267
0.000814265
0.000823487
0.000832619
0.000841623
0.000850509
0.000859264
0.000867883
0.000876353
0.000884664
0.000892806
0.000900768
0.00090854
0.000916109
0.000923465
0.000930597
0.000937493
0.000944143
0.000950535
0.000956659
0.000962504
0.00096806
0.000973317
0.000978268
0.000982903
0.000987216
0.0009912
0.000994851
0.000998172
0.00100118
0.00100394
0.00100615
0.00100782
0.00100939
0.00101076
0.00101164
0.00101217
0.00101236
0.0010122
0.00101171
0.0010109
0.00100978
0.00100836
0.00100665
0.00100467
0.00100243
0.000999934
0.000997204
0.000994264
0.000991138
0.000987848
0.000984418
0.000980871
0.000977228
0.000973513
0.000969748
0.00096595
0.000962141
0.000958351
0.000954615
0.000950946
0.000947365
0.000943893
0.000940558
0.00093737
0.00093435
0.00093151
0.00092887
0.000926439
0.000924226
0.000922218
0.000920414
0.000918797
0.000917288
0.000915384
0.000911858
0.000907946
0.000903848
0.000899614
0.00089534
0.000890948
0.000886307
0.000880976
0.000875184
0.000868863
0.000861844
0.000852182
0.000826052
4.06363e-06
6.02734e-05
0.000124971
0.00017428
0.000210246
0.000236764
0.000257364
0.000274551
0.000289889
0.000304232
0.000317966
0.000331206
0.00034393
0.000356065
0.000367522
0.000378215
0.000388054
0.00039693
0.00040467
0.000411005
0.000415529
0.00041771
0.000416924
0.000413005
0.000406118
0.000397465
0.000389721
0.000388023
0.00040582
0.000431957
0.000462229
0.000492166
0.000514522
0.000521317
0.000527885
0.000532017
0.000540797
0.000555996
0.000571392
0.00058702
0.00060287
0.00061887
0.000635034
0.000651336
0.000667776
0.000684348
0.000701049
0.00071788
0.000734841
0.000751937
0.00076917
0.000786543
0.000804061
0.000821726
0.000839542
0.000857511
0.000875636
0.000893917
0.000912358
0.000930957
0.000949715
0.000968631
0.000987704
0.00100693
0.00102631
0.00104584
0.00106551
0.00108533
0.00110527
0.00112535
0.00114555
0.00116586
0.00118628
0.0012068
0.00122741
0.00124811
0.00126887
0.0012897
0.00131058
0.0013315
0.00135246
0.00137343
0.00139442
0.0014154
0.00143636
0.00145729
0.00147816
0.00149894
0.00151962
0.00154013
0.00156043
0.00158044
0.00160006
0.0016192
0.0016379
0.00165637
0.0016746
0.00169258
0.00171029
0.0017277
0.0017448
0.00176157
0.00177799
0.00179403
0.00180967
0.00182489
0.00183967
0.00185399
0.00186782
0.00188115
0.00189395
0.00190619
0.00191787
0.00192895
0.00193943
0.00194928
0.00195848
0.00196704
0.00197492
0.00198212
0.00198864
0.00199447
0.00199977
0.00200447
0.0020078
0.00201062
0.0020131
0.00201471
0.00201558
0.00201575
0.00201522
0.00201402
0.00201215
0.00200965
0.00200653
0.00200282
0.00199855
0.00199374
0.00198841
0.00198262
0.0019764
0.00196979
0.00196284
0.0019556
0.00194811
0.00194042
0.00193257
0.00192461
0.00191657
0.00190851
0.00190047
0.00189251
0.00188466
0.00187697
0.00186948
0.00186223
0.00185525
0.00184857
0.00184222
0.00183623
0.0018306
0.00182534
0.00182044
0.00181587
0.00181159
0.00180744
0.00180283
0.00179689
0.00179027
0.00178316
0.00177579
0.00176855
0.00176101
0.00175284
0.00174367
0.00173361
0.00172244
0.00170948
0.00169173
0.00164816
6.19417e-06
7.67712e-05
0.000158069
0.000222051
0.000270023
0.000306063
0.000333916
0.000356426
0.000375581
0.000392665
0.000408433
0.000423286
0.000437411
0.000450882
0.000463725
0.00047596
0.000487619
0.000498746
0.000509386
0.000519569
0.000529279
0.000538448
0.00054697
0.000554822
0.000562213
0.00056988
0.000579343
0.000592892
0.000612558
0.000635664
0.000660031
0.000683648
0.000704808
0.000723421
0.000740896
0.00075887
0.00077866
0.000800253
0.000822353
0.000844763
0.000867375
0.000890162
0.00091312
0.000936246
0.000959538
0.000982997
0.00100663
0.00103043
0.0010544
0.00107855
0.00110289
0.00112742
0.00115215
0.00117707
0.0012022
0.00122754
0.00125308
0.00127883
0.00130478
0.00133095
0.00135732
0.00138389
0.00141066
0.00143762
0.00146477
0.00149211
0.00151962
0.0015473
0.00157514
0.00160313
0.00163126
0.00165951
0.00168789
0.00171637
0.00174494
0.00177359
0.00180231
0.00183108
0.00185988
0.0018887
0.00191752
0.00194632
0.0019751
0.00200381
0.00203245
0.00206099
0.0020894
0.00211764
0.00214569
0.00217348
0.00220098
0.00222813
0.00225486
0.00228115
0.00230707
0.00233266
0.00235791
0.00238282
0.00240734
0.00243145
0.00245513
0.00247836
0.00250109
0.0025233
0.00254498
0.00256607
0.00258657
0.00260643
0.00262564
0.00264415
0.00266195
0.00267899
0.00269527
0.00271074
0.00272538
0.00273917
0.00275209
0.00276411
0.00277523
0.00278541
0.00279464
0.00280293
0.00281043
0.00281725
0.0028224
0.0028265
0.00283009
0.00283255
0.002834
0.00283446
0.00283394
0.00283247
0.00283008
0.00282678
0.0028226
0.00281759
0.00281178
0.00280519
0.00279789
0.00278991
0.00278131
0.00277215
0.0027625
0.00275241
0.00274195
0.00273117
0.00272015
0.00270894
0.0026976
0.0026862
0.00267481
0.00266349
0.00265231
0.00264131
0.00263057
0.00262012
0.00261003
0.00260034
0.00259108
0.00258228
0.00257397
0.00256615
0.00255881
0.00255191
0.0025454
0.0025391
0.00253258
0.00252526
0.0025174
0.0025092
0.00250081
0.00249224
0.00248321
0.0024735
0.00246278
0.00245097
0.0024378
0.00242229
0.00240092
0.00235452
8.25409e-06
9.05169e-05
0.000185513
0.000261597
0.000320047
0.000364569
0.000399122
0.000426804
0.000449902
0.000470011
0.000488184
0.00050508
0.000521094
0.000536466
0.000551353
0.000565881
0.000580181
0.000594399
0.000608693
0.000623227
0.000638138
0.000653517
0.000669391
0.000685744
0.000702591
0.000720109
0.000738771
0.000759227
0.000781813
0.000806021
0.000831228
0.000856792
0.000882225
0.00090748
0.000932873
0.000958604
0.000985111
0.00101226
0.00103971
0.00106733
0.00109514
0.00112313
0.00115132
0.00117971
0.00120829
0.00123707
0.00126605
0.00129524
0.00132463
0.00135423
0.00138404
0.00141408
0.00144435
0.00147486
0.00150561
0.00153659
0.00156781
0.00159927
0.00163097
0.00166289
0.00169505
0.00172743
0.00176002
0.00179283
0.00182584
0.00185904
0.00189243
0.00192598
0.0019597
0.00199357
0.00202757
0.00206169
0.00209591
0.00213023
0.00216462
0.00219907
0.00223355
0.00226806
0.00230256
0.00233705
0.0023715
0.00240589
0.00244019
0.00247439
0.00250846
0.00254236
0.00257608
0.00260957
0.00264281
0.00267575
0.00270837
0.00274063
0.00277251
0.002804
0.00283511
0.00286584
0.00289617
0.00292608
0.00295554
0.00298452
0.00301299
0.00304093
0.00306829
0.00309505
0.00312118
0.00314664
0.0031714
0.00319544
0.00321871
0.00324117
0.00326281
0.00328358
0.00330346
0.0033224
0.00334038
0.00335737
0.00337334
0.00338827
0.00340213
0.0034149
0.00342656
0.00343709
0.00344659
0.00345532
0.00346242
0.00346804
0.0034729
0.00347648
0.00347885
0.00348002
0.00348001
0.00347885
0.00347654
0.00347314
0.00346866
0.00346315
0.00345665
0.0034492
0.00344084
0.00343165
0.00342168
0.003411
0.00339969
0.00338781
0.00337543
0.00336263
0.00334949
0.00333608
0.00332248
0.00330876
0.00329501
0.00328131
0.00326773
0.00325435
0.00324123
0.00322845
0.00321607
0.00320414
0.00319273
0.00318185
0.00317156
0.00316186
0.00315274
0.00314419
0.00313614
0.00312845
0.00312081
0.00311285
0.00310445
0.00309583
0.003087
0.00307789
0.00306833
0.0030581
0.00304695
0.00303473
0.00302115
0.00300519
0.00298334
0.00294136
1.01801e-05
0.000102
0.000208438
0.000294944
0.00036274
0.000415085
0.000456042
0.000488886
0.000516116
0.000539568
0.000560533
0.000579894
0.000598238
0.000615959
0.000633332
0.00065057
0.000667862
0.00068539
0.000703336
0.000721874
0.000741157
0.000761295
0.000782336
0.000804272
0.000827057
0.000850668
0.000875163
0.000900657
0.000927197
0.000954689
0.000982978
0.00101187
0.00104121
0.00107091
0.00110096
0.00113139
0.00116224
0.00119344
0.00122491
0.00125658
0.00128846
0.00132054
0.00135282
0.00138531
0.00141801
0.00145093
0.00148406
0.00151742
0.00155101
0.00158484
0.00161892
0.00165324
0.0016878
0.00172259
0.00175763
0.0017929
0.00182841
0.00186415
0.00190013
0.00193633
0.00197275
0.00200939
0.00204624
0.00208328
0.00212051
0.00215792
0.00219549
0.00223322
0.00227109
0.00230909
0.0023472
0.00238541
0.00242369
0.00246204
0.00250044
0.00253887
0.0025773
0.00261573
0.00265413
0.00269248
0.00273076
0.00276894
0.00280701
0.00284494
0.0028827
0.00292028
0.00295763
0.00299474
0.00303158
0.00306812
0.00310434
0.00314021
0.00317572
0.00321085
0.00324558
0.00327991
0.00331381
0.00334725
0.00338021
0.00341266
0.00344457
0.00347591
0.00350664
0.00353673
0.00356616
0.00359488
0.00362286
0.00365007
0.00367647
0.00370202
0.00372669
0.00375044
0.00377323
0.00379503
0.00381581
0.00383552
0.00385413
0.00387162
0.00388795
0.0039031
0.00391704
0.00392974
0.00394123
0.00395187
0.00396097
0.00396841
0.00397472
0.00397971
0.00398336
0.00398565
0.0039866
0.00398623
0.00398457
0.00398164
0.00397749
0.00397214
0.00396564
0.00395803
0.00394938
0.00393974
0.00392917
0.00391776
0.00390557
0.00389268
0.00387917
0.00386513
0.00385064
0.00383578
0.00382065
0.00380533
0.00378991
0.00377448
0.00375913
0.00374396
0.00372903
0.00371445
0.00370027
0.00368658
0.00367343
0.00366088
0.00364898
0.00363775
0.0036272
0.00361732
0.00360806
0.00359932
0.0035909
0.00358251
0.00357405
0.0035655
0.00355683
0.00354796
0.00353872
0.00352894
0.00351841
0.00350698
0.00349434
0.00347952
0.00345944
0.00342342
1.1924e-05
0.000111471
0.00022743
0.000322985
0.000399172
0.000458844
0.000506003
0.000544036
0.00057559
0.000602672
0.000626762
0.000648922
0.000669902
0.000690231
0.000710284
0.000730345
0.000750638
0.000771357
0.000792671
0.000814732
0.000837661
0.000861544
0.000886416
0.000912266
0.000939045
0.000966687
0.000995142
0.00102438
0.00105436
0.00108505
0.00111638
0.00114828
0.00118069
0.00121354
0.00124678
0.00128038
0.00131432
0.00134854
0.00138302
0.00141771
0.00145262
0.00148774
0.00152306
0.00155859
0.00159433
0.00163028
0.00166646
0.00170285
0.00173948
0.00177634
0.00181343
0.00185075
0.00188831
0.0019261
0.00196412
0.00200236
0.00204084
0.00207953
0.00211845
0.00215758
0.00219692
0.00223645
0.00227618
0.00231609
0.00235617
0.00239641
0.0024368
0.00247733
0.00251798
0.00255874
0.00259959
0.00264052
0.00268151
0.00272254
0.00276361
0.00280468
0.00284574
0.00288678
0.00292777
0.00296869
0.00300952
0.00305024
0.00309083
0.00313127
0.00317153
0.0032116
0.00325143
0.00329103
0.00333035
0.00336938
0.00340809
0.00344647
0.0034845
0.00352216
0.00355943
0.0035963
0.00363273
0.0036687
0.0037042
0.00373918
0.00377362
0.00380749
0.00384076
0.0038734
0.00390537
0.00393663
0.00396716
0.00399692
0.00402587
0.00405396
0.00408118
0.00410746
0.00413277
0.00415708
0.00418035
0.00420252
0.00422358
0.00424347
0.00426217
0.00427964
0.00429584
0.00431075
0.00432435
0.00433701
0.00434814
0.00435762
0.00436566
0.00437237
0.00437761
0.00438137
0.00438366
0.00438449
0.0043839
0.00438191
0.00437855
0.00437386
0.00436788
0.00436065
0.00435222
0.00434267
0.00433204
0.00432043
0.0043079
0.00429453
0.00428041
0.00426563
0.00425027
0.00423444
0.00421821
0.0042017
0.004185
0.00416822
0.00415144
0.00413478
0.00411833
0.00410218
0.00408642
0.00407115
0.00405644
0.00404235
0.00402896
0.0040163
0.0040044
0.00399328
0.0039829
0.00397321
0.00396406
0.00395526
0.00394669
0.00393827
0.00392991
0.00392153
0.00391298
0.0039041
0.00389474
0.00388474
0.00387384
0.00386117
0.00384414
0.00381483
1.34506e-05
0.000119101
0.000242866
0.0003465
0.000430001
0.000496475
0.000549603
0.0005928
0.000628792
0.0006597
0.000687138
0.000712304
0.000736077
0.000759095
0.000781818
0.000804587
0.000827656
0.000851225
0.000875449
0.000900455
0.000926335
0.000953151
0.000980922
0.00100963
0.00103923
0.00106965
0.00110084
0.00113273
0.00116526
0.00119839
0.00123208
0.00126627
0.00130093
0.001336
0.00137146
0.00140725
0.00144335
0.0014797
0.0015163
0.00155311
0.00159013
0.00162735
0.00166476
0.00170238
0.00174019
0.0017782
0.00181643
0.00185485
0.0018935
0.00193235
0.00197142
0.0020107
0.0020502
0.00208991
0.00212984
0.00216997
0.00221032
0.00225086
0.00229161
0.00233256
0.00237369
0.002415
0.00245649
0.00249815
0.00253995
0.00258191
0.002624
0.0026662
0.00270852
0.00275094
0.00279343
0.00283599
0.00287861
0.00292126
0.00296393
0.00300661
0.00304927
0.0030919
0.00313448
0.00317699
0.00321942
0.00326173
0.00330392
0.00334597
0.00338784
0.00342953
0.003471
0.00351225
0.00355324
0.00359397
0.00363441
0.00367453
0.00371433
0.00375378
0.00379287
0.00383157
0.00386986
0.00390772
0.00394512
0.00398203
0.00401843
0.00405429
0.00408958
0.00412426
0.00415831
0.00419169
0.00422436
0.0042563
0.00428745
0.00431779
0.00434727
0.00437584
0.00440348
0.00443012
0.00445574
0.00448028
0.00450371
0.00452597
0.00454704
0.00456686
0.0045854
0.00460261
0.00461848
0.00463331
0.0046466
0.0046583
0.00466838
0.00467707
0.0046842
0.00468973
0.00469368
0.00469605
0.00469688
0.00469619
0.00469401
0.00469035
0.00468527
0.0046788
0.00467099
0.0046619
0.0046516
0.00464015
0.00462764
0.00461414
0.00459973
0.00458452
0.00456859
0.00455203
0.00453496
0.00451748
0.00449969
0.0044817
0.00446363
0.00444559
0.00442768
0.00441002
0.0043927
0.00437584
0.00435952
0.00434385
0.00432889
0.00431473
0.0043014
0.00428894
0.00427737
0.00426664
0.00425668
0.00424736
0.00423856
0.00423019
0.00422216
0.00421435
0.00420666
0.00419895
0.0041911
0.00418297
0.00417432
0.00416444
0.00415117
0.0041287
1.47384e-05
0.000125053
0.000255081
0.000365624
0.000455622
0.000528347
0.000587141
0.000635378
0.000675808
0.000710616
0.000741498
0.000769749
0.000796342
0.000822
0.000847254
0.000872496
0.000898005
0.000923986
0.000950587
0.000977916
0.00100605
0.00103508
0.00106499
0.00109576
0.00112733
0.00115966
0.00119269
0.00122634
0.00126058
0.00129535
0.00133061
0.00136631
0.00140244
0.00143894
0.0014758
0.001513
0.00155045
0.00158814
0.00162605
0.00166415
0.00170243
0.00174089
0.00177952
0.00181833
0.00185731
0.00189647
0.00193582
0.00197534
0.00201506
0.00205496
0.00209506
0.00213534
0.00217582
0.00221649
0.00225735
0.0022984
0.00233964
0.00238107
0.00242268
0.00246447
0.00250643
0.00254857
0.00259087
0.00263332
0.00267592
0.00271867
0.00276154
0.00280453
0.00284763
0.00289083
0.00293412
0.00297747
0.00302089
0.00306436
0.00310785
0.00315137
0.00319488
0.00323837
0.00328184
0.00332525
0.0033686
0.00341186
0.00345502
0.00349805
0.00354095
0.00358368
0.00362624
0.0036686
0.00371074
0.00375265
0.00379431
0.00383569
0.00387678
0.00391756
0.00395802
0.00399812
0.00403785
0.00407719
0.00411611
0.00415459
0.00419261
0.00423012
0.00426712
0.00430356
0.00433942
0.00437466
0.00440925
0.00444315
0.00447633
0.00450874
0.00454034
0.0045711
0.00460095
0.00462987
0.0046578
0.00468469
0.00471049
0.00473516
0.00475865
0.00478091
0.00480189
0.00482155
0.00483987
0.00485703
0.00487265
0.00488672
0.00489913
0.00491007
0.00491937
0.00492696
0.00493284
0.00493705
0.0049396
0.00494051
0.0049398
0.00493749
0.00493362
0.00492821
0.00492132
0.00491299
0.00490329
0.00489228
0.00488004
0.00486664
0.00485217
0.00483673
0.00482039
0.00480328
0.00478549
0.00476714
0.00474833
0.0047292
0.00470985
0.00469041
0.00467101
0.00465176
0.0046328
0.00461423
0.00459618
0.00457875
0.00456207
0.0045462
0.00453125
0.00451727
0.00450431
0.00449236
0.00448141
0.00447137
0.00446217
0.00445372
0.00444593
0.0044387
0.00443194
0.00442554
0.0044194
0.0044134
0.00440736
0.00440065
0.00439154
0.004376
1.57772e-05
0.000129474
0.000264345
0.000380651
0.000476343
0.000554726
0.000618797
0.000671844
0.000716593
0.000755245
0.00078954
0.000820834
0.000850163
0.000878307
0.000905853
0.000933294
0.000960899
0.000988865
0.00101733
0.00104639
0.00107606
0.00110654
0.00113781
0.00116984
0.00120261
0.00123606
0.00127014
0.0013048
0.00134
0.00137567
0.0014118
0.00144833
0.00148524
0.0015225
0.00156008
0.00159795
0.00163597
0.00167422
0.00171267
0.00175126
0.00179
0.00182886
0.00186786
0.00190699
0.00194627
0.00198569
0.00202527
0.002065
0.00210488
0.00214493
0.00218515
0.00222553
0.00226609
0.00230681
0.00234772
0.0023888
0.00243005
0.00247149
0.0025131
0.0025549
0.00259686
0.002639
0.0026813
0.00272377
0.0027664
0.00280919
0.00285212
0.00289519
0.00293839
0.00298171
0.00302515
0.00306868
0.00311231
0.00315602
0.00319979
0.00324361
0.00328746
0.00333134
0.00337522
0.0034191
0.00346294
0.00350674
0.00355048
0.00359414
0.0036377
0.00368114
0.00372445
0.0037676
0.00381059
0.00385338
0.00389597
0.00393833
0.00398044
0.00402229
0.00406386
0.00410512
0.00414606
0.00418666
0.00422689
0.00426673
0.00430616
0.00434515
0.00438368
0.00442172
0.00445923
0.00449619
0.00453257
0.00456833
0.00460343
0.00463783
0.0046715
0.00470438
0.00473643
0.0047676
0.00479784
0.0048271
0.00485533
0.00488246
0.00490846
0.00493326
0.0049568
0.00497904
0.00499997
0.00501961
0.00503775
0.00505439
0.00506941
0.00508282
0.00509458
0.00510447
0.00511254
0.00511884
0.00512338
0.00512617
0.00512721
0.00512652
0.00512413
0.00512005
0.00511433
0.00510701
0.00509815
0.0050878
0.00507604
0.00506294
0.00504858
0.00503306
0.00501646
0.0049989
0.00498047
0.00496131
0.00494152
0.00492124
0.00490059
0.00487971
0.00485874
0.00483781
0.00481706
0.00479663
0.00477667
0.0047573
0.00473867
0.00472088
0.00470407
0.00468833
0.00467374
0.00466035
0.00464818
0.00463721
0.0046274
0.00461869
0.00461101
0.00460428
0.00459844
0.0045934
0.00458908
0.0045854
0.00458217
0.00457887
0.00457411
0.00456507
1.65678e-05
0.000132518
0.000270932
0.000391892
0.000492462
0.000575851
0.000644727
0.000702245
0.000751068
0.00079338
0.00083093
0.000865113
0.000897019
0.000927417
0.000956852
0.00098588
0.00101489
0.00104412
0.00107378
0.00110396
0.0011348
0.00116634
0.00119854
0.00123137
0.0012648
0.00129879
0.00133331
0.00136831
0.00140376
0.0014396
0.0014758
0.00151233
0.00154917
0.00158627
0.00162364
0.00166127
0.00169919
0.00173732
0.00177557
0.00181388
0.00185225
0.00189068
0.00192918
0.00196777
0.00200645
0.00204525
0.00208416
0.0021232
0.00216236
0.00220167
0.00224113
0.00228074
0.00232052
0.00236046
0.00240058
0.00244087
0.00248135
0.00252202
0.00256289
0.00260395
0.00264521
0.00268667
0.00272833
0.0027702
0.00281226
0.00285451
0.00289696
0.00293959
0.00298241
0.0030254
0.00306856
0.00311187
0.00315532
0.00319892
0.00324263
0.00328645
0.00333037
0.00337437
0.00341842
0.00346253
0.00350666
0.00355081
0.00359494
0.00363905
0.00368312
0.00372712
0.00377104
0.00381485
0.00385855
0.0039021
0.0039455
0.00398871
0.00403173
0.00407454
0.00411711
0.00415942
0.00420147
0.00424322
0.00428466
0.00432576
0.00436651
0.00440689
0.00444686
0.0044864
0.00452549
0.00456409
0.00460219
0.00463974
0.0046767
0.00471305
0.00474874
0.00478372
0.00481795
0.00485138
0.00488396
0.00491562
0.00494631
0.00497597
0.00500455
0.00503198
0.0050582
0.00508316
0.00510681
0.00512912
0.00514997
0.00516938
0.00518719
0.00520332
0.00521782
0.00523024
0.00524074
0.00524937
0.00525615
0.00526107
0.00526412
0.00526531
0.00526464
0.00526215
0.00525784
0.00525177
0.00524397
0.0052345
0.00522342
0.0052108
0.00519673
0.00518128
0.00516456
0.00514666
0.00512769
0.00510778
0.00508706
0.00506564
0.00504369
0.00502133
0.00499873
0.00497603
0.00495338
0.00493096
0.00490892
0.00488743
0.00486664
0.00484673
0.00482783
0.00481009
0.00479363
0.00477856
0.00476493
0.0047528
0.00474216
0.00473299
0.00472526
0.00471893
0.00471394
0.00471025
0.00470779
0.00470649
0.0047062
0.00470645
0.0047061
0.00470326
1.71226e-05
0.000134368
0.000275126
0.000399663
0.00050427
0.00059195
0.000665067
0.000726602
0.00077913
0.0008248
0.000865266
0.000901794
0.000935682
0.000967826
0.00099895
0.00102963
0.00106009
0.00109056
0.00112123
0.00115223
0.00118365
0.0012155
0.00124783
0.00128063
0.00131391
0.00134763
0.00138177
0.00141629
0.00145115
0.0014863
0.00152172
0.00155739
0.00159329
0.0016294
0.00166568
0.00170215
0.00173885
0.0017758
0.00181294
0.0018501
0.00188726
0.00192439
0.00196149
0.00199861
0.00203578
0.00207303
0.00211036
0.00214781
0.00218537
0.00222307
0.00226092
0.00229893
0.00233712
0.00237549
0.00241407
0.00245287
0.00249189
0.00253114
0.00257064
0.00261039
0.00265041
0.00269068
0.00273123
0.00277205
0.00281314
0.0028545
0.00289614
0.00293804