/*--------------------------------*- C++ -*----------------------------------*\
  =========                 |
  \\      /  F ield         | OpenFOAM: The Open Source CFD Toolbox
   \\    /   O peration     | Website:  https://openfoam.org
    \\  /    A nd           | Version:  12
     \\/     M anipulation  |
\*---------------------------------------------------------------------------*/
FoamFile
{
    format      ascii;
    class       volScalarField;
    location    "200";
    object      p;
}
// * * * * * * * * * * * * * * * * * * * * * * * * * * * * * * * * * * * * * //

dimensions      [0 2 -2 0 0 0 0];

internalField   nonuniform List<scalar> 
12225
(
-2.06569
-4.25427
-5.35423
-5.67484
-5.85607
-6.02507
-6.1566
-6.25175
-6.32836
-6.39577
-6.4558
-6.5107
-6.56052
-6.60693
-6.65016
-6.68571
-6.72961
-6.69697
-5.22912
-5.99757
-6.15798
-6.0657
-6.05312
-6.12095
-6.19848
-6.26422
-6.32384
-6.38129
-6.43593
-6.48687
-6.5348
-6.57989
-6.62312
-6.66073
-6.70423
-6.73195
-5.63026
-5.61525
-5.74256
-5.82088
-5.91573
-6.03587
-6.14308
-6.22791
-6.29973
-6.3651
-6.42523
-6.48018
-6.53138
-6.57912
-6.62492
-6.66641
-6.7137
-6.75459
-5.50832
-5.45141
-5.69296
-5.85123
-5.95292
-6.05909
-6.15676
-6.23679
-6.30553
-6.36862
-6.42721
-6.48126
-6.53193
-6.57956
-6.62555
-6.66908
-6.71645
-6.76372
-5.49798
-5.52241
-5.75043
-5.89193
-5.9755
-6.06752
-6.15871
-6.2364
-6.30394
-6.36617
-6.4243
-6.47831
-6.52916
-6.57732
-6.62405
-6.66941
-6.71726
-6.76734
-5.55593
-5.60487
-5.7791
-5.90296
-5.98442
-6.0722
-6.16021
-6.23669
-6.30365
-6.36535
-6.42314
-6.4771
-6.52804
-6.57656
-6.62375
-6.6701
-6.71804
-6.76827
-5.61626
-5.6605
-5.79564
-5.91191
-5.9956
-6.07969
-6.16357
-6.23817
-6.30423
-6.36523
-6.4225
-6.47625
-6.52714
-6.57582
-6.62322
-6.66997
-6.71759
-6.76675
-5.66978
-5.70742
-5.81734
-5.92557
-6.00851
-6.08806
-6.16743
-6.23987
-6.30489
-6.36509
-6.42175
-6.4752
-6.52594
-6.57463
-6.62202
-6.66872
-6.71568
-6.76326
-5.71949
-5.75262
-5.84349
-5.94139
-6.02141
-6.09673
-6.17184
-6.24191
-6.30568
-6.36495
-6.4209
-6.4739
-6.52436
-6.57286
-6.62
-6.66628
-6.7123
-6.75811
-5.76652
-5.79576
-5.87123
-5.95838
-6.03453
-6.10601
-6.17707
-6.24451
-6.30677
-6.36495
-6.42004
-6.47242
-6.52243
-6.57051
-6.61716
-6.66275
-6.70761
-6.75164
-5.8108
-5.83628
-5.89943
-5.97654
-6.04816
-6.11591
-6.18308
-6.24771
-6.30823
-6.36515
-6.41923
-6.47082
-6.52018
-6.56766
-6.6136
-6.65827
-6.70187
-6.74415
-5.84878
-5.87111
-5.92526
-5.99403
-6.06108
-6.1254
-6.18916
-6.25114
-6.3099
-6.36553
-6.41855
-6.46927
-6.51788
-6.56463
-6.60978
-6.65348
-6.69585
-6.73663
-5.88386
-5.90356
-5.95034
-6.01166
-6.07408
-6.13501
-6.19555
-6.2549
-6.31181
-6.36605
-6.41793
-6.46768
-6.51543
-6.56134
-6.60559
-6.64825
-6.68941
-6.72878
-5.92059
-5.93777
-5.97774
-6.03169
-6.08895
-6.14605
-6.2031
-6.25952
-6.31423
-6.36678
-6.41726
-6.46578
-6.51242
-6.55726
-6.60037
-6.64181
-6.68158
-6.71948
-5.95775
-5.97252
-6.00647
-6.05351
-6.10533
-6.15825
-6.21164
-6.2649
-6.31709
-6.36765
-6.41644
-6.46347
-6.50874
-6.55225
-6.59402
-6.63405
-6.67233
-6.7087
-5.99334
-6.00596
-6.03486
-6.07577
-6.12228
-6.17094
-6.22062
-6.27062
-6.3201
-6.36842
-6.41529
-6.46059
-6.50425
-6.54622
-6.58646
-6.62495
-6.66168
-6.69651
-6.02449
-6.03535
-6.06028
-6.09619
-6.13803
-6.18271
-6.22892
-6.27581
-6.32258
-6.36857
-6.41338
-6.45682
-6.49873
-6.53903
-6.57764
-6.61454
-6.6497
-6.68306
-6.04681
-6.05646
-6.0787
-6.11114
-6.14956
-6.19117
-6.23459
-6.27891
-6.32335
-6.36723
-6.41012
-6.45175
-6.49196
-6.53061
-6.56764
-6.60301
-6.63669
-6.66867
-6.05344
-6.06259
-6.0838
-6.11493
-6.152
-6.19226
-6.23429
-6.27721
-6.32025
-6.36276
-6.40427
-6.44454
-6.48337
-6.52068
-6.55639
-6.59048
-6.62293
-6.65377
-6.03719
-6.04696
-6.06955
-6.10262
-6.1416
-6.18328
-6.22622
-6.26971
-6.31306
-6.3556
-6.39692
-6.43682
-6.47516
-6.51188
-6.54693
-6.58032
-6.61205
-6.6422
-6.01026
-6.02105
-6.04631
-6.08332
-6.12608
-6.17058
-6.21564
-6.26085
-6.30546
-6.34879
-6.39054
-6.43061
-6.46897
-6.50555
-6.54038
-6.57348
-6.6049
-6.6347
-5.97499
-5.9868
-6.01615
-6.05972
-6.10799
-6.15595
-6.20375
-6.25145
-6.29798
-6.34254
-6.38504
-6.42558
-6.46417
-6.50082
-6.53559
-6.56855
-6.59978
-6.62937
-5.93441
-5.9463
-5.98074
-6.034
-6.08954
-6.14148
-6.19235
-6.24277
-6.29126
-6.33711
-6.38051
-6.42168
-6.46065
-6.49749
-6.5323
-6.56523
-6.59637
-6.62587
-5.89069
-5.90165
-5.94341
-6.00782
-6.06999
-6.12665
-6.18225
-6.23609
-6.28633
-6.33313
-6.37723
-6.41889
-6.45813
-6.49506
-6.52988
-6.56275
-6.59381
-6.62318
-5.8438
-5.84923
-5.91188
-5.99007
-6.052
-6.11024
-6.17136
-6.2297
-6.2822
-6.33024
-6.37523
-6.41747
-6.45698
-6.494
-6.52879
-6.56158
-6.59256
-6.62188
-5.80053
-5.76406
-5.87358
-5.98455
-6.04679
-6.10206
-6.16425
-6.22398
-6.27718
-6.32588
-6.37158
-6.41435
-6.4542
-6.4914
-6.5263
-6.55915
-6.59015
-6.61948
-5.81461
-5.6556
-5.78453
-5.93861
-6.02872
-6.10007
-6.16899
-6.22988
-6.28267
-6.33093
-6.37619
-6.41843
-6.45769
-6.49433
-6.52868
-6.56104
-6.59162
-6.62067
-5.93725
-5.75732
-5.77154
-5.84368
-5.93205
-6.03126
-6.12194
-6.1957
-6.25739
-6.31251
-6.3628
-6.40854
-6.45033
-6.48879
-6.52446
-6.55777
-6.58918
-6.61931
-5.64454
-6.23625
-6.32509
-6.20083
-6.14648
-6.17363
-6.2206
-6.26382
-6.30536
-6.34753
-6.389
-6.4283
-6.46524
-6.49995
-6.53248
-6.56301
-6.59173
-6.62043
-2.65651
-4.41915
-5.42384
-5.72299
-5.87216
-6.01577
-6.12979
-6.21073
-6.27494
-6.33179
-6.38302
-6.42903
-6.47069
-6.50889
-6.54416
-6.57628
-6.6051
-6.62887
-7.52467
-7.52472
-7.52523
-7.52631
-7.52784
-7.52977
-7.53207
-7.53474
-7.5378
-7.54126
-7.54514
-7.5495
-7.55437
-7.5598
-7.56584
-7.57252
-7.57989
-7.58804
-7.59709
-7.60728
-7.61883
-7.6318
-7.64588
-7.66026
-7.67407
-7.68781
-7.70317
-7.72116
-7.74117
-7.76235
-7.78447
-7.8077
-7.83045
-7.85231
-7.8731
-7.89308
-7.91325
-7.93536
-7.95987
-7.98525
-8.0115
-8.03839
-8.06578
-8.09358
-8.12166
-8.14995
-8.17834
-8.20679
-8.23518
-8.26345
-8.29151
-8.31929
-8.34666
-8.37357
-8.39988
-8.42553
-8.45037
-8.47431
-8.49719
-8.51894
-8.53936
-8.55835
-8.57573
-8.59137
-8.60507
-8.6167
-8.62605
-8.63297
-8.63723
-8.63866
-8.63704
-8.6322
-8.62387
-8.6119
-8.59603
-8.57607
-8.55176
-8.52292
-8.48928
-8.45065
-8.40677
-8.35747
-8.30248
-8.24164
-8.17469
-8.10146
-8.02174
-7.93536
-7.84216
-7.74206
-7.63507
-7.52118
-7.40025
-7.27181
-7.13545
-6.99122
-6.83926
-6.6796
-6.51229
-6.33738
-6.15493
-5.96501
-5.76774
-5.56325
-5.35173
-5.13336
-4.90838
-4.67704
-4.43963
-4.19644
-3.94782
-3.69412
-3.43571
-3.17298
-2.90635
-2.63626
-2.36314
-2.08744
-1.80959
-1.53004
-1.24924
-0.967651
-0.68572
-0.403888
-0.122577
0.157818
0.436931
0.714383
0.989839
1.26296
1.53348
1.8011
2.06563
2.32683
2.58459
2.83872
3.08918
3.33591
3.57894
3.81821
4.05376
4.28564
4.51399
4.73901
4.96089
5.17986
5.39619
5.61016
5.82208
6.0323
6.24116
6.44906
6.65639
6.86358
7.07105
7.27926
7.48864
7.69967
7.91276
8.12838
8.3469
8.56872
8.79419
9.02355
9.25703
9.49487
9.73705
9.98307
10.2322
10.4842
10.7385
10.9946
11.2515
11.5084
11.7641
12.018
12.2699
12.5195
12.7812
13.0453
-7.52249
-7.52302
-7.52381
-7.52468
-7.52547
-7.52631
-7.52745
-7.529
-7.53104
-7.53359
-7.53667
-7.54028
-7.54444
-7.54917
-7.5545
-7.56047
-7.56711
-7.57447
-7.58261
-7.59158
-7.60133
-7.61175
-7.62277
-7.63448
-7.64769
-7.66311
-7.67999
-7.69672
-7.71253
-7.72779
-7.7433
-7.75876
-7.77602
-7.79663
-7.82149
-7.84961
-7.87944
-7.90861
-7.93553
-7.96228
-7.98919
-8.01638
-8.04383
-8.07155
-8.09947
-8.12756
-8.15573
-8.18393
-8.21207
-8.24011
-8.26794
-8.2955
-8.32268
-8.34942
-8.3756
-8.40113
-8.42588
-8.44977
-8.47265
-8.49441
-8.51491
-8.534
-8.55154
-8.56737
-8.58132
-8.59325
-8.60295
-8.61026
-8.61497
-8.61691
-8.61586
-8.61164
-8.60401
-8.59278
-8.57772
-8.55863
-8.53527
-8.50744
-8.47488
-8.4374
-8.39476
-8.34675
-8.29316
-8.23378
-8.1684
-8.09684
-8.01887
-7.93434
-7.84305
-7.74486
-7.63965
-7.52718
-7.40721
-7.2797
-7.14479
-7.00242
-6.85248
-6.69491
-6.52973
-6.35695
-6.17663
-5.98884
-5.7937
-5.59132
-5.38187
-5.16554
-4.94255
-4.71315
-4.47761
-4.23623
-3.98933
-3.73725
-3.48038
-3.21909
-2.95379
-2.68491
-2.41289
-2.13816
-1.86116
-1.58234
-1.30214
-1.02103
-0.739463
-0.457861
-0.176655
0.103762
0.383008
0.660719
0.936535
1.21014
1.48123
1.74953
2.01481
2.27686
2.53551
2.79061
3.04208
3.28987
3.53396
3.77432
4.01094
4.24389
4.47327
4.69929
4.92212
5.142
5.35915
5.57387
5.78646
5.99725
6.20659
6.41486
6.62244
6.82977
7.03725
7.24534
7.45447
7.6651
7.87766
8.0926
8.31031
8.53118
8.75561
8.98384
9.21603
9.45238
9.69283
9.93691
10.1842
10.4343
10.6869
10.9414
11.1969
11.4526
11.7077
11.9614
12.2142
12.4655
12.7304
12.9863
-7.51657
-7.51819
-7.52047
-7.52221
-7.52326
-7.52405
-7.52495
-7.52618
-7.52785
-7.53003
-7.53276
-7.53605
-7.53991
-7.54438
-7.54948
-7.55525
-7.56174
-7.569
-7.57708
-7.58599
-7.59567
-7.60599
-7.61683
-7.62826
-7.64075
-7.65483
-7.67044
-7.68702
-7.70407
-7.72152
-7.73949
-7.75783
-7.77672
-7.79677
-7.81847
-7.84206
-7.86708
-7.89281
-7.91858
-7.94466
-7.97106
-7.99777
-8.02474
-8.05194
-8.07932
-8.10686
-8.13447
-8.16212
-8.18973
-8.21724
-8.24457
-8.27165
-8.29839
-8.32471
-8.35051
-8.37569
-8.40014
-8.42376
-8.44641
-8.46799
-8.48836
-8.50736
-8.52487
-8.54072
-8.55475
-8.56681
-8.5767
-8.58426
-8.58929
-8.59162
-8.59102
-8.58732
-8.58029
-8.56973
-8.55542
-8.53716
-8.51471
-8.48785
-8.45637
-8.42004
-8.37864
-8.33196
-8.27977
-8.22189
-8.15809
-8.08818
-8.01197
-7.92927
-7.83991
-7.74374
-7.64061
-7.53029
-7.41257
-7.28737
-7.15475
-7.01469
-6.86711
-6.71197
-6.54925
-6.37897
-6.20116
-6.01588
-5.82324
-5.62335
-5.41638
-5.2025
-4.98192
-4.75488
-4.52164
-4.28249
-4.03775
-3.78774
-3.53284
-3.27343
-3.00989
-2.74266
-2.47216
-2.19882
-1.92308
-1.64539
-1.36619
-1.08595
-0.805118
-0.524118
-0.243366
0.0367383
0.315796
0.593454
0.869343
1.14315
1.41456
1.6833
1.94911
2.2118
2.47116
2.72705
2.97936
3.22805
3.47305
3.71433
3.95189
4.18576
4.41606
4.64294
4.86659
5.0872
5.30502
5.5203
5.73335
5.94447
6.15402
6.36234
6.56983
6.77689
6.98394
7.1914
7.39974
7.60935
7.8207
8.03426
8.25041
8.46952
8.69202
8.91824
9.14837
9.38253
9.6207
9.86257
10.1078
10.356
10.6069
10.8598
11.1141
11.3691
11.6239
11.8781
12.1326
12.3857
12.6534
12.8947
-7.50759
-7.51045
-7.5148
-7.51815
-7.52023
-7.5217
-7.523
-7.5244
-7.52609
-7.52818
-7.53076
-7.53387
-7.53755
-7.54183
-7.54673
-7.5523
-7.55856
-7.56557
-7.57337
-7.58201
-7.59145
-7.60163
-7.61244
-7.6239
-7.63612
-7.64937
-7.66376
-7.67924
-7.6957
-7.71316
-7.73161
-7.75105
-7.77135
-7.79247
-7.81443
-7.83732
-7.861
-7.88534
-7.91016
-7.93547
-7.96119
-7.98729
-8.01369
-8.04035
-8.06723
-8.09426
-8.1214
-8.14859
-8.17576
-8.20286
-8.22981
-8.25653
-8.28295
-8.30898
-8.33452
-8.35948
-8.38375
-8.40723
-8.42978
-8.4513
-8.47165
-8.49069
-8.50826
-8.52423
-8.53843
-8.5507
-8.56086
-8.56873
-8.57414
-8.57687
-8.57676
-8.57358
-8.56713
-8.55721
-8.54361
-8.52609
-8.50446
-8.47847
-8.44792
-8.41258
-8.37223
-8.32665
-8.27564
-8.21896
-8.15643
-8.08783
-8.01299
-7.93169
-7.84377
-7.74907
-7.64743
-7.53867
-7.42262
-7.29919
-7.16836
-7.03009
-6.88432
-6.731
-6.57013
-6.40171
-6.22576
-6.04236
-5.85158
-5.65355
-5.44841
-5.23634
-5.01753
-4.79222
-4.56066
-4.32314
-4.07996
-3.83145
-3.57798
-3.3199
-3.05763
-2.79157
-2.52214
-2.24978
-1.97492
-1.69801
-1.41949
-1.13983
-0.85948
-0.578871
-0.298396
-0.0184591
0.260534
0.538222
0.814247
1.08829
1.36002
1.62918
1.89549
2.15875
2.41875
2.67535
2.92843
3.17791
3.42374
3.66585
3.90425
4.13897
4.37012
4.59783
4.82227
5.04363
5.26215
5.47805
5.69165
5.90322
6.11311
6.32166
6.52926
6.73628
6.94313
7.15022
7.35802
7.56693
7.77737
7.9898
8.20466
8.4223
8.6431
8.86736
9.09528
9.32703
9.56265
9.80196
10.0447
10.2907
10.5394
10.7904
11.043
11.2965
11.5504
11.8041
12.0584
12.311
12.5764
12.8028
-7.49792
-7.50205
-7.50864
-7.51381
-7.5172
-7.51966
-7.5217
-7.52364
-7.52569
-7.52802
-7.53075
-7.53397
-7.53773
-7.54208
-7.54705
-7.55268
-7.559
-7.56605
-7.57387
-7.5825
-7.59195
-7.6022
-7.61322
-7.62501
-7.6376
-7.65105
-7.66541
-7.68068
-7.69686
-7.714
-7.73213
-7.75129
-7.77144
-7.79254
-7.81448
-7.83719
-7.86054
-7.88443
-7.90878
-7.93359
-7.95881
-7.9844
-8.01032
-8.03652
-8.06295
-8.08957
-8.1163
-8.14312
-8.16994
-8.19672
-8.22336
-8.24982
-8.27599
-8.30181
-8.32717
-8.35199
-8.37615
-8.39955
-8.42206
-8.44357
-8.46395
-8.48305
-8.50073
-8.51684
-8.53122
-8.5437
-8.55411
-8.56228
-8.56802
-8.57113
-8.57142
-8.5687
-8.56275
-8.55337
-8.54034
-8.52344
-8.50246
-8.47718
-8.44736
-8.4128
-8.37327
-8.32855
-8.27842
-8.22267
-8.16109
-8.09349
-8.01965
-7.93939
-7.85253
-7.75891
-7.65837
-7.55076
-7.43591
-7.31374
-7.18417
-7.04715
-6.90261
-6.75054
-6.59089
-6.42368
-6.24895
-6.06674
-5.87713
-5.68026
-5.47625
-5.26528
-5.04754
-4.82325
-4.59268
-4.35609
-4.1138
-3.86612
-3.61343
-3.35607
-3.09447
-2.82901
-2.56012
-2.28823
-2.01379
-1.73723
-1.459
-1.17958
-0.899409
-0.618933
-0.338525
-0.0585996
0.220452
0.498238
0.774434
1.04868
1.32069
1.59014
1.85681
2.12043
2.38085
2.63789
2.89143
3.14138
3.38766
3.63023
3.86906
4.10421
4.33578
4.5639
4.78871
5.01042
5.22922
5.44538
5.65915
5.87087
6.08081
6.28934
6.49682
6.70366
6.91021
7.11689
7.32414
7.5324
7.74205
7.95356
8.1673
8.38367
8.60301
8.82565
9.0518
9.28162
9.51518
9.75241
9.99315
10.2372
10.4841
10.7335
10.9846
11.2369
11.4898
11.7426
11.9959
12.2465
12.5074
12.7203
-7.48948
-7.49479
-7.50333
-7.51018
-7.5149
-7.51843
-7.52136
-7.524
-7.52662
-7.52941
-7.53252
-7.53605
-7.54009
-7.54469
-7.5499
-7.55577
-7.56234
-7.56964
-7.5777
-7.58655
-7.59621
-7.60669
-7.61798
-7.6301
-7.64305
-7.65684
-7.67147
-7.68695
-7.70327
-7.72045
-7.73849
-7.75744
-7.77727
-7.79797
-7.81948
-7.84173
-7.86462
-7.88807
-7.91201
-7.9364
-7.96121
-7.9864
-8.01193
-8.03775
-8.06383
-8.0901
-8.11653
-8.14305
-8.16961
-8.19614
-8.22257
-8.24884
-8.27486
-8.30055
-8.32582
-8.35057
-8.37469
-8.39808
-8.42063
-8.4422
-8.46266
-8.48188
-8.49971
-8.516
-8.53059
-8.54332
-8.554
-8.56247
-8.56854
-8.57201
-8.57269
-8.57039
-8.56488
-8.55598
-8.54345
-8.52708
-8.50666
-8.48195
-8.45275
-8.41882
-8.37994
-8.33589
-8.28646
-8.23142
-8.17058
-8.10372
-8.03065
-7.95116
-7.86508
-7.77225
-7.67252
-7.56572
-7.45171
-7.33039
-7.20166
-7.06546
-6.92174
-6.77046
-6.61159
-6.44513
-6.27112
-6.08961
-5.90069
-5.70446
-5.50107
-5.29068
-5.07349
-4.84972
-4.61961
-4.38345
-4.14155
-3.89422
-3.64182
-3.38473
-3.12333
-2.85805
-2.5893
-2.31751
-2.04312
-1.76659
-1.48837
-1.20892
-0.9287
-0.648145
-0.36765
-0.0876085
0.191577
0.469528
0.745899
1.02035
1.29255
1.56222
1.8291
2.09294
2.35357
2.61081
2.86454
3.11465
3.36105
3.60369
3.84256
4.07774
4.30929
4.53736
4.76208
4.98365
5.20226
5.41817
5.63164
5.84301
6.05254
6.26059
6.46751
6.67371
6.87957
7.08548
7.29189
7.49921
7.70785
7.91824
8.13081
8.34591
8.56393
8.78516
9.00985
9.23815
9.47015
9.70583
9.94511
10.1878
10.4335
10.6817
10.932
11.1835
11.4357
11.6878
11.9399
12.1882
12.4446
12.646
-7.48364
-7.48994
-7.49996
-7.50817
-7.51406
-7.51861
-7.52242
-7.52582
-7.52908
-7.53243
-7.53602
-7.53998
-7.54441
-7.54938
-7.55494
-7.56115
-7.56804
-7.57567
-7.58404
-7.59319
-7.60314
-7.6139
-7.62547
-7.63786
-7.65106
-7.66509
-7.67992
-7.69557
-7.71203
-7.72929
-7.74735
-7.76622
-7.78588
-7.80632
-7.8275
-7.84937
-7.87186
-7.89493
-7.9185
-7.94255
-7.96703
-7.9919
-8.01713
-8.04267
-8.06847
-8.09451
-8.12071
-8.14703
-8.17342
-8.1998
-8.22611
-8.25229
-8.27824
-8.3039
-8.32915
-8.35392
-8.37809
-8.40155
-8.42419
-8.44589
-8.4665
-8.48589
-8.50392
-8.52044
-8.53527
-8.54827
-8.55924
-8.56802
-8.57441
-8.57823
-8.57929
-8.57737
-8.57227
-8.56378
-8.55169
-8.53577
-8.51581
-8.49158
-8.46287
-8.42944
-8.39107
-8.34755
-8.29864
-8.24414
-8.18384
-8.11752
-8.04499
-7.96605
-7.88051
-7.78823
-7.68904
-7.58277
-7.4693
-7.34851
-7.2203
-7.08459
-6.94135
-6.7905
-6.63205
-6.46598
-6.29233
-6.11115
-5.92252
-5.72656
-5.52341
-5.31322
-5.09618
-4.87253
-4.64252
-4.40641
-4.16452
-3.91718
-3.66473
-3.40756
-3.14606
-2.88064
-2.61172
-2.33975
-2.06517
-1.78843
-1.51
-1.23034
-0.949904
-0.669124
-0.388424
-0.108177
0.171204
0.449366
0.725932
1.00058
1.27296
1.5428
1.8098
2.07376
2.33447
2.59176
2.8455
3.09556
3.34187
3.58435
3.82304
4.05795
4.28922
4.51691
4.74124
4.96233
5.18044
5.39575
5.60857
5.81918
6.02793
6.23511
6.44112
6.64631
6.85111
7.05589
7.26111
7.46718
7.67454
7.88361
8.09482
8.30854
8.52516
8.745
8.9683
9.19524
9.42593
9.66039
9.89854
10.1402
10.3851
10.6326
10.8823
11.1334
11.3853
11.6368
11.8879
12.134
12.3864
12.5782
-7.48118
-7.48816
-7.49914
-7.50834
-7.51514
-7.52056
-7.52516
-7.52926
-7.53316
-7.53707
-7.54118
-7.54561
-7.55047
-7.55585
-7.5618
-7.56838
-7.57562
-7.58358
-7.59227
-7.60173
-7.61196
-7.62299
-7.6348
-7.64742
-7.66082
-7.67502
-7.69
-7.70576
-7.72228
-7.73958
-7.75764
-7.77645
-7.79599
-7.81626
-7.83721
-7.85882
-7.88104
-7.90382
-7.92713
-7.95092
-7.97516
-7.99981
-8.02482
-8.05018
-8.07581
-8.1017
-8.12778
-8.154
-8.18031
-8.20664
-8.23293
-8.25911
-8.28508
-8.31078
-8.33611
-8.36098
-8.38526
-8.40887
-8.43167
-8.45355
-8.47436
-8.49398
-8.51225
-8.52902
-8.54412
-8.5574
-8.56867
-8.57775
-8.58447
-8.58862
-8.59002
-8.58844
-8.5837
-8.57558
-8.56385
-8.54831
-8.52873
-8.50488
-8.47655
-8.4435
-8.40551
-8.36237
-8.31384
-8.25972
-8.19978
-8.13382
-8.06165
-7.98305
-7.89785
-7.80589
-7.707
-7.60104
-7.48785
-7.36733
-7.23936
-7.10388
-6.96081
-6.81013
-6.6518
-6.48582
-6.31223
-6.13108
-5.94246
-5.74646
-5.54323
-5.33293
-5.11576
-4.89194
-4.66172
-4.42537
-4.18322
-3.93558
-3.68282
-3.42532
-3.16347
-2.89769
-2.6284
-2.35605
-2.0811
-1.804
-1.52521
-1.24522
-0.964456
-0.683372
-0.402393
-0.121908
0.157703
0.436073
0.712841
0.987654
1.26017
1.5301
1.79717
2.06115
2.32184
2.57907
2.83268
3.08254
3.32859
3.57076
3.80909
4.0436
4.27439
4.50156
4.72527
4.9457
5.16306
5.37757
5.58952
5.7992
6.00692
6.21302
6.41787
6.62185
6.82537
7.02882
7.23265
7.4373
7.64319
7.85078
8.06049
8.27273
8.48787
8.70626
8.92816
9.1538
9.38327
9.61663
9.85383
10.0947
10.3389
10.586
10.8354
11.0863
11.3378
11.5889
11.8391
12.0831
12.3323
12.5166
-7.48233
-7.48966
-7.5011
-7.51088
-7.51833
-7.5244
-7.52963
-7.53433
-7.53879
-7.54321
-7.54779
-7.55267
-7.55794
-7.5637
-7.57001
-7.57693
-7.5845
-7.59276
-7.60173
-7.61144
-7.62191
-7.63315
-7.64515
-7.65794
-7.67149
-7.68581
-7.70088
-7.71671
-7.73328
-7.7506
-7.76863
-7.78739
-7.80684
-7.82699
-7.84779
-7.86923
-7.89127
-7.91388
-7.93701
-7.96064
-7.98473
-8.00925
-8.03415
-8.05941
-8.08497
-8.11081
-8.13686
-8.16307
-8.1894
-8.21577
-8.24212
-8.26837
-8.29445
-8.32028
-8.34575
-8.37078
-8.39525
-8.41905
-8.44207
-8.46417
-8.48523
-8.5051
-8.52362
-8.54066
-8.55605
-8.56961
-8.58117
-8.59055
-8.59757
-8.60202
-8.60371
-8.60244
-8.598
-8.59017
-8.57875
-8.56349
-8.5442
-8.52063
-8.49257
-8.45979
-8.42207
-8.37917
-8.33088
-8.27698
-8.21725
-8.1515
-8.0795
-8.00108
-7.91602
-7.82419
-7.72541
-7.61954
-7.50642
-7.38594
-7.25799
-7.1225
-6.97939
-6.82863
-6.67018
-6.50406
-6.33029
-6.14893
-5.96006
-5.76378
-5.56024
-5.34959
-5.13205
-4.90782
-4.67716
-4.44036
-4.19773
-3.9496
-3.69633
-3.43831
-3.17593
-2.90962
-2.63981
-2.36695
-2.09151
-1.81394
-1.53473
-1.25433
-0.973198
-0.691781
-0.410513
-0.129794
0.150031
0.428576
0.705503
0.980413
1.25299
1.52291
1.78994
2.05383
2.31439
2.57142
2.82476
3.07429
3.31991
3.56163
3.79942
4.03336
4.26348
4.48995
4.71288
4.93247
5.1489
5.36245
5.57335
5.78193
5.98847
6.19335
6.39691
6.59956
6.80167
7.0037
7.20606
7.40921
7.61358
7.81964
8.02782
8.23854
8.45221
8.66917
8.88973
9.11411
9.34247
9.57487
9.81127
10.0515
10.2953
10.5421
10.7913
11.042
11.2935
11.5442
11.7935
12.0358
12.2824
12.4608
-7.48692
-7.49432
-7.50577
-7.51575
-7.52355
-7.53004
-7.53571
-7.54086
-7.54574
-7.55058
-7.55555
-7.56079
-7.5664
-7.57248
-7.57908
-7.58627
-7.5941
-7.60259
-7.61177
-7.62168
-7.63232
-7.6437
-7.65583
-7.66872
-7.68236
-7.69675
-7.71188
-7.72775
-7.74434
-7.76165
-7.77967
-7.79839
-7.81779
-7.83787
-7.85859
-7.87994
-7.90188
-7.9244
-7.94745
-7.971
-7.99503
-8.01951
-8.04439
-8.06964
-8.09523
-8.1211
-8.1472
-8.1735
-8.19992
-8.2264
-8.25289
-8.2793
-8.30555
-8.33156
-8.35723
-8.38247
-8.40717
-8.43121
-8.45447
-8.47682
-8.49813
-8.51826
-8.53706
-8.55436
-8.57001
-8.58384
-8.59566
-8.6053
-8.61257
-8.61727
-8.61921
-8.61818
-8.61396
-8.60635
-8.59513
-8.58008
-8.56097
-8.53758
-8.50968
-8.47705
-8.43945
-8.39667
-8.34849
-8.29467
-8.23501
-8.1693
-8.09734
-8.01891
-7.93385
-7.84197
-7.74314
-7.63718
-7.52395
-7.40333
-7.27521
-7.13951
-6.99617
-6.84514
-6.68639
-6.51994
-6.3458
-6.16403
-5.97472
-5.77798
-5.57393
-5.36276
-5.14466
-4.91985
-4.68859
-4.45118
-4.20791
-3.95913
-3.70522
-3.44655
-3.18353
-2.91658
-2.64616
-2.37271
-2.09671
-1.81863
-1.53895
-1.25813
-0.97662
-0.694881
-0.413358
-0.132428
0.147552
0.426221
0.703224
0.978175
1.25072
1.52056
1.78744
2.05112
2.3114
2.56808
2.82099
3.07002
3.31508
3.55616
3.79325
4.02641
4.25571
4.48127
4.70323
4.92179
5.13714
5.34954
5.55925
5.76657
5.97182
6.17535
6.37752
6.57873
6.77939
6.97992
7.18076
7.38238
7.58522
7.78974
7.99641
8.20565
8.41788
8.63348
8.85278
9.076
9.30336
9.53491
9.77064
10.0104
10.2538
10.5005
10.7496
11.0004
11.2518
11.5023
11.7509
11.9916
12.2362
12.4102
-7.49456
-7.50176
-7.51283
-7.52266
-7.53054
-7.53721
-7.54312
-7.54854
-7.55371
-7.55883
-7.56406
-7.56956
-7.57541
-7.5817
-7.58851
-7.59589
-7.60388
-7.61252
-7.62183
-7.63185
-7.64258
-7.65404
-7.66624
-7.67918
-7.69285
-7.70727
-7.72242
-7.7383
-7.75489
-7.77221
-7.79022
-7.80892
-7.8283
-7.84836
-7.86905
-7.89038
-7.9123
-7.93481
-7.95785
-7.98142
-8.00548
-8.02999
-8.05493
-8.08027
-8.10594
-8.13193
-8.15816
-8.1846
-8.21118
-8.23785
-8.26452
-8.29114
-8.3176
-8.34384
-8.36974
-8.39522
-8.42016
-8.44444
-8.46795
-8.49055
-8.51211
-8.53248
-8.55151
-8.56904
-8.58491
-8.59896
-8.61098
-8.62082
-8.62827
-8.63315
-8.63524
-8.63436
-8.63028
-8.62279
-8.61167
-8.59671
-8.57767
-8.55434
-8.52648
-8.49387
-8.45628
-8.41349
-8.36527
-8.31141
-8.25168
-8.18588
-8.1138
-8.03524
-7.95001
-7.85796
-7.75892
-7.65272
-7.53923
-7.41832
-7.28988
-7.15383
-7.01011
-6.85865
-6.69946
-6.53252
-6.35787
-6.17556
-5.98568
-5.78833
-5.58365
-5.37183
-5.15304
-4.92754
-4.69557
-4.45743
-4.21343
-3.96392
-3.70928
-3.44989
-3.18616
-2.91853
-2.64745
-2.37339
-2.09682
-1.81823
-1.53808
-1.25684
-0.974981
-0.692954
-0.411207
-0.130106
0.149972
0.428693
0.705683
0.980578
1.25298
1.52263
1.78922
2.05256
2.3124
2.56855
2.82087
3.0692
3.31351
3.55375
3.78995
4.02212
4.25039
4.47485
4.69567
4.91301
5.12712
5.3382
5.54658
5.7525
5.95634
6.1584
6.35909
6.55879
6.75792
6.95691
7.15621
7.35628
7.5576
7.76062
7.96582
8.17365
8.38454
8.59889
8.81703
9.03925
9.26573
9.4966
9.73182
9.97125
10.2145
10.4612
10.7104
10.9614
11.2128
11.4631
11.7112
11.9507
12.1937
12.3645
-7.50467
-7.51147
-7.52185
-7.53124
-7.53893
-7.54555
-7.5515
-7.55701
-7.56229
-7.56754
-7.57291
-7.57854
-7.5845
-7.5909
-7.5978
-7.60526
-7.61331
-7.622
-7.63136
-7.6414
-7.65216
-7.66363
-7.67583
-7.68877
-7.70245
-7.71687
-7.73201
-7.7479
-7.7645
-7.78182
-7.79984
-7.81856
-7.83796
-7.85803
-7.87875
-7.9001
-7.92206
-7.94461
-7.96772
-7.99138
-8.01553
-8.04016
-8.06523
-8.09071
-8.11654
-8.1427
-8.16911
-8.19575
-8.22253
-8.2494
-8.27629
-8.30313
-8.32982
-8.35629
-8.38242
-8.40812
-8.43328
-8.45779
-8.4815
-8.50431
-8.52606
-8.54661
-8.56581
-8.5835
-8.59951
-8.61368
-8.62582
-8.63576
-8.64329
-8.64823
-8.65038
-8.64952
-8.64546
-8.63797
-8.62683
-8.61184
-8.59275
-8.56935
-8.5414
-8.50869
-8.47098
-8.42805
-8.37968
-8.32564
-8.26571
-8.19969
-8.12738
-8.04856
-7.96305
-7.87069
-7.77132
-7.66478
-7.55091
-7.42959
-7.30072
-7.16421
-7.01999
-6.86802
-6.70827
-6.54076
-6.3655
-6.18255
-5.99201
-5.79397
-5.58859
-5.37603
-5.1565
-4.93024
-4.69751
-4.4586
-4.21383
-3.96356
-3.70816
-3.44803
-3.18358
-2.91525
-2.64351
-2.36884
-2.09171
-1.81262
-1.53202
-1.25041
-0.968243
-0.685986
-0.404063
-0.122871
0.15722
0.435872
0.712733
0.987416
1.25954
1.52881
1.79497
2.05777
2.31699
2.57243
2.82394
3.0714
3.31476
3.55398
3.78908
4.02011
4.24716
4.47035
4.68984
4.90582
5.11851
5.32815
5.53503
5.73945
5.94174
6.14226
6.34137
6.53949
6.73704
6.93446
7.13219
7.33072
7.53052
7.73208
7.93587
8.14236
8.35199
8.5652
8.78231
9.00365
9.22942
9.45975
9.69462
9.93387
10.1771
10.4239
10.6734
10.9246
11.1762
11.4265
11.6742
11.9127
12.1545
12.3232
-7.51661
-7.52285
-7.53233
-7.54104
-7.54832
-7.55468
-7.56046
-7.56587
-7.5711
-7.57631
-7.58166
-7.58726
-7.59321
-7.59959
-7.60646
-7.61388
-7.6219
-7.63055
-7.63987
-7.64988
-7.66059
-7.67203
-7.68421
-7.69712
-7.71077
-7.72518
-7.74032
-7.7562
-7.77281
-7.79015
-7.8082
-7.82696
-7.84639
-7.86651
-7.88728
-7.90869
-7.93073
-7.95338
-7.97661
-8.0004
-8.02471
-8.04951
-8.07475
-8.10041
-8.12643
-8.15278
-8.17939
-8.20622
-8.23321
-8.26028
-8.28737
-8.31441
-8.34129
-8.36794
-8.39425
-8.42012
-8.44543
-8.47007
-8.49391
-8.51682
-8.53866
-8.55929
-8.57854
-8.59627
-8.6123
-8.62647
-8.63859
-8.64849
-8.65597
-8.66084
-8.66289
-8.66194
-8.65775
-8.65012
-8.63884
-8.62367
-8.6044
-8.5808
-8.55264
-8.5197
-8.48175
-8.43856
-8.38991
-8.33558
-8.27535
-8.20902
-8.13636
-8.05719
-7.9713
-7.87855
-7.77877
-7.67179
-7.55746
-7.43567
-7.30629
-7.16926
-7.02449
-6.87195
-6.71162
-6.54348
-6.36759
-6.18398
-5.99274
-5.794
-5.58789
-5.37459
-5.1543
-4.92727
-4.69376
-4.45407
-4.20853
-3.95749
-3.70134
-3.44047
-3.17531
-2.90631
-2.63395
-2.3587
-2.08106
-1.80152
-1.52056
-1.23867
-0.956303
-0.673919
-0.391942
-0.110804
0.169146
0.447561
0.724122
0.998412
1.27008
1.53879
1.80431
2.06638
2.32477
2.5793
2.82981
3.07621
3.31841
3.55643
3.79024
4.01993
4.24558
4.46733
4.68532
4.89978
5.1109
5.31897
5.52424
5.72705
5.9277
6.12658
6.32406
6.52056
6.71649
6.91232
7.1085
7.30552
7.50386
7.70401
7.90647
8.11172
8.32023
8.53241
8.74865
8.96927
9.1945
9.42446
9.65915
9.89839
10.1418
10.3889
10.6387
10.8902
11.1422
11.3925
11.64
11.8778
12.1187
12.2861
-7.52977
-7.53535
-7.54377
-7.55163
-7.55832
-7.56423
-7.56965
-7.57476
-7.57974
-7.58474
-7.5899
-7.59532
-7.6011
-7.60733
-7.61406
-7.62135
-7.62925
-7.6378
-7.64702
-7.65693
-7.66757
-7.67893
-7.69104
-7.70391
-7.71752
-7.73189
-7.74701
-7.76288
-7.77949
-7.79684
-7.8149
-7.83369
-7.85318
-7.87336
-7.8942
-7.91572
-7.93788
-7.96066
-7.98404
-8.00799
-8.03246
-8.05743
-8.08285
-8.10868
-8.13487
-8.16138
-8.18814
-8.21512
-8.24224
-8.26945
-8.29666
-8.3238
-8.35078
-8.37751
-8.40387
-8.42978
-8.45511
-8.47974
-8.50356
-8.52642
-8.54819
-8.56872
-8.58787
-8.60546
-8.62135
-8.63535
-8.64729
-8.65699
-8.66425
-8.66889
-8.6707
-8.66949
-8.66503
-8.65713
-8.64555
-8.63009
-8.61052
-8.5866
-8.55813
-8.52486
-8.48657
-8.44304
-8.39404
-8.33934
-8.27874
-8.21202
-8.13897
-8.0594
-7.97311
-7.87992
-7.77969
-7.67225
-7.55745
-7.43515
-7.30526
-7.16769
-7.02237
-6.86925
-6.70832
-6.53957
-6.36304
-6.17877
-5.98686
-5.78742
-5.5806
-5.36657
-5.14555
-4.91778
-4.68353
-4.4431
-4.19683
-3.94508
-3.68822
-3.42668
-3.16089
-2.89131
-2.61842
-2.3427
-2.06467
-1.78481
-1.50363
-1.22159
-0.939158
-0.656785
-0.374933
-0.0940233
0.185592
0.46359
0.73964
1.01334
1.28433
1.55229
1.81695
2.07807
2.33543
2.58883
2.83814
3.08326
3.32413
3.56073
3.79308
4.02125
4.24533
4.46547
4.68183
4.89461
5.10406
5.31042
5.514
5.71509
5.91405
6.11123
6.30704
6.50189
6.69621
6.89046
7.08512
7.28066
7.4776
7.67642
7.87766
8.08178
8.28928
8.50059
8.71612
8.93617
9.16102
9.39078
9.62545
9.86483
10.1086
10.356
10.6063
10.8583
11.1106
11.3611
11.6085
11.8459
12.086
12.2529
-7.54361
-7.54848
-7.55577
-7.56267
-7.56859
-7.57385
-7.57871
-7.58333
-7.58786
-7.59245
-7.59724
-7.60233
-7.60781
-7.61377
-7.62025
-7.62733
-7.63502
-7.64339
-7.65244
-7.66221
-7.67271
-7.68396
-7.69597
-7.70874
-7.72228
-7.73659
-7.75166
-7.7675
-7.7841
-7.80144
-7.81953
-7.83835
-7.85789
-7.87814
-7.89908
-7.9207
-7.94297
-7.96586
-7.98935
-8.01341
-8.03799
-8.06306
-8.08856
-8.11447
-8.14071
-8.16726
-8.19405
-8.22104
-8.24816
-8.27535
-8.30252
-8.32959
-8.35649
-8.3831
-8.40933
-8.43508
-8.46022
-8.48465
-8.50824
-8.53085
-8.55235
-8.5726
-8.59144
-8.60871
-8.62427
-8.63792
-8.64951
-8.65884
-8.66573
-8.66999
-8.67143
-8.66982
-8.66498
-8.65668
-8.64472
-8.62886
-8.60889
-8.58458
-8.55571
-8.52205
-8.48337
-8.43944
-8.39004
-8.33495
-8.27395
-8.20683
-8.13339
-8.0534
-7.9667
-7.87309
-7.77242
-7.66453
-7.54927
-7.4265
-7.29613
-7.15806
-7.01222
-6.85857
-6.6971
-6.52778
-6.35067
-6.16581
-5.97328
-5.77322
-5.56577
-5.3511
-5.12944
-4.90102
-4.66613
-4.42507
-4.17817
-3.92582
-3.6684
-3.40632
-3.14004
-2.87002
-2.59675
-2.32073
-2.04247
-1.76248
-1.48124
-1.19923
-0.91691
-0.634757
-0.353245
-0.0727735
0.206294
0.483659
0.75897
1.03186
1.30195
1.56892
1.83249
2.09244
2.34853
2.60059
2.84851
3.09215
3.33149
3.5665
3.79722
4.02369
4.24606
4.46445
4.67904
4.89005
5.09771
5.30229
5.50409
5.70343
5.90065
6.09612
6.29026
6.48347
6.6762
6.86892
7.06211
7.25627
7.45189
7.64952
7.84964
8.05278
8.25942
8.47003
8.68499
8.90467
9.12929
9.35903
9.59382
9.83351
10.0777
10.3256
10.5765
10.8291
11.0818
11.3326
11.58
11.8172
12.0567
12.2237
-7.55825
-7.56242
-7.56859
-7.57443
-7.57941
-7.58381
-7.58785
-7.59171
-7.59555
-7.5995
-7.60371
-7.60827
-7.61328
-7.61881
-7.6249
-7.63163
-7.63901
-7.64709
-7.65589
-7.66543
-7.67572
-7.68678
-7.69861
-7.71123
-7.72463
-7.73882
-7.75379
-7.76954
-7.78606
-7.80335
-7.82139
-7.84018
-7.8597
-7.87995
-7.90089
-7.92251
-7.94476
-7.96763
-7.99107
-8.01507
-8.03957
-8.06455
-8.08994
-8.11571
-8.14181
-8.16818
-8.19478
-8.22155
-8.24844
-8.27536
-8.30225
-8.32901
-8.35556
-8.38181
-8.40765
-8.43299
-8.4577
-8.48168
-8.50479
-8.52693
-8.54793
-8.56768
-8.58601
-8.60277
-8.61781
-8.63095
-8.64202
-8.65084
-8.65722
-8.66099
-8.66192
-8.65983
-8.6545
-8.64574
-8.63331
-8.617
-8.5966
-8.57185
-8.54257
-8.50849
-8.46941
-8.42508
-8.37531
-8.31984
-8.25848
-8.19099
-8.11718
-8.03684
-7.94976
-7.85578
-7.75474
-7.64647
-7.53082
-7.40766
-7.27689
-7.13841
-6.99215
-6.83808
-6.67616
-6.5064
-6.32883
-6.1435
-5.95051
-5.74996
-5.54202
-5.32686
-5.10472
-4.87582
-4.64046
-4.39895
-4.15162
-3.89886
-3.64106
-3.37865
-3.11209
-2.84185
-2.56843
-2.29235
-2.0141
-1.73419
-1.45312
-1.17136
-0.889405
-0.60774
-0.326813
-0.0470334
0.231247
0.507715
0.782041
1.05386
1.32278
1.58851
1.85075
2.10928
2.36388
2.6144