/*--------------------------------*- C++ -*----------------------------------*\
  =========                 |
  \\      /  F ield         | OpenFOAM: The Open Source CFD Toolbox
   \\    /   O peration     | Website:  https://openfoam.org
    \\  /    A nd           | Version:  12
     \\/     M anipulation  |
\*---------------------------------------------------------------------------*/
FoamFile
{
    format      ascii;
    class       surfaceScalarField;
    location    "200";
    object      phi;
}
// * * * * * * * * * * * * * * * * * * * * * * * * * * * * * * * * * * * * * //

dimensions      [0 3 -1 0 0 0 0];

internalField   nonuniform List<scalar> 
24170
(
3.129e-06
5.94009e-08
3.04662e-06
8.23797e-08
2.97353e-06
7.30934e-08
2.90489e-06
6.86347e-08
2.84056e-06
6.43311e-08
2.78323e-06
5.7327e-08
2.7339e-06
4.93275e-08
2.69194e-06
4.19559e-08
2.65626e-06
3.56792e-08
2.6258e-06
3.04527e-08
2.59959e-06
2.62072e-08
2.57679e-06
2.28042e-08
2.55672e-06
2.00645e-08
2.53881e-06
1.79121e-08
2.52268e-06
1.61278e-08
2.50733e-06
1.53494e-08
2.49302e-06
1.43057e-08
1.98237e-08
2.47319e-06
3.45306e-06
2.35855e-08
3.457e-06
7.84375e-08
3.45054e-06
7.95538e-08
3.43908e-06
8.0091e-08
3.4243e-06
7.91093e-08
3.40705e-06
7.45772e-08
3.38783e-06
6.85474e-08
3.36729e-06
6.24841e-08
3.34614e-06
5.68293e-08
3.32495e-06
5.16392e-08
3.30421e-06
4.69458e-08
3.28419e-06
4.28198e-08
3.26509e-06
3.91615e-08
3.24694e-06
3.60567e-08
3.22985e-06
3.3224e-08
3.21366e-06
3.15363e-08
3.19877e-06
2.91899e-08
3.13114e-08
3.18728e-06
3.66816e-06
1.79425e-08
3.6792e-06
6.73967e-08
3.68542e-06
7.33271e-08
3.68946e-06
7.60578e-08
3.69105e-06
7.7513e-08
3.69008e-06
7.55451e-08
3.68694e-06
7.16866e-08
3.6821e-06
6.73283e-08
3.67594e-06
6.29852e-08
3.66879e-06
5.87838e-08
3.66094e-06
5.48008e-08
3.65262e-06
5.11374e-08
3.64402e-06
4.77615e-08
3.6353e-06
4.47755e-08
3.62651e-06
4.20128e-08
3.61802e-06
4.00237e-08
3.60934e-06
3.78659e-08
3.75615e-08
3.60309e-06
3.92585e-06
1.74821e-08
3.93592e-06
5.73262e-08
3.94257e-06
6.66762e-08
3.9481e-06
7.05176e-08
3.95252e-06
7.30995e-08
3.95546e-06
7.25984e-08
3.95713e-06
7.00188e-08
3.95776e-06
6.66975e-08
3.95754e-06
6.32023e-08
3.95661e-06
5.97024e-08
3.95513e-06
5.62871e-08
3.95319e-06
5.30694e-08
3.9509e-06
5.0051e-08
3.94836e-06
4.7318e-08
3.94558e-06
4.47865e-08
3.94286e-06
4.27464e-08
3.93995e-06
4.07706e-08
3.94282e-08
3.93808e-06
4.2082e-06
1.641e-08
4.21598e-06
4.95418e-08
4.22168e-06
6.09795e-08
4.22678e-06
6.54142e-08
4.23153e-06
6.83533e-08
4.23549e-06
6.86298e-08
4.23866e-06
6.68543e-08
4.24113e-06
6.42253e-08
4.24301e-06
6.13166e-08
4.2444e-06
5.83155e-08
4.24537e-06
5.53194e-08
4.246e-06
5.24391e-08
4.24634e-06
4.97022e-08
4.24649e-06
4.71739e-08
4.24645e-06
4.48198e-08
4.24642e-06
4.27764e-08
4.24635e-06
4.08378e-08
3.90858e-08
4.24669e-06
4.51071e-06
1.47875e-08
4.51688e-06
4.33687e-08
4.52213e-06
5.57315e-08
4.52694e-06
6.05985e-08
4.53165e-06
6.36423e-08
4.5359e-06
6.43832e-08
4.53956e-06
6.31835e-08
4.54272e-06
6.1068e-08
4.54544e-06
5.8599e-08
4.54777e-06
5.59761e-08
4.54978e-06
5.33067e-08
4.55153e-06
5.06937e-08
4.55305e-06
4.81823e-08
4.5544e-06
4.58198e-08
4.55562e-06
4.35975e-08
4.55683e-06
4.15676e-08
4.55804e-06
3.96191e-08
3.76932e-08
4.55944e-06
4.83433e-06
1.31777e-08
4.83963e-06
3.80719e-08
4.84475e-06
5.06084e-08
4.84945e-06
5.58969e-08
4.85408e-06
5.90118e-08
4.85839e-06
6.0069e-08
4.86226e-06
5.93152e-08
4.86572e-06
5.76079e-08
4.86883e-06
5.54898e-08
4.87163e-06
5.31718e-08
4.87417e-06
5.07694e-08
4.87648e-06
4.83784e-08
4.87861e-06
4.60534e-08
4.8806e-06
4.38304e-08
4.88248e-06
4.17113e-08
4.88434e-06
3.97069e-08
4.88621e-06
3.77493e-08
3.5758e-08
4.88815e-06
5.18105e-06
1.17116e-08
5.18575e-06
3.33659e-08
5.19075e-06
4.56072e-08
5.1954e-06
5.1247e-08
5.19998e-06
5.4428e-08
5.20434e-06
5.57124e-08
5.20833e-06
5.53225e-08
5.21197e-06
5.39616e-08
5.21532e-06
5.21423e-08
5.2184e-06
5.00861e-08
5.22126e-06
4.79134e-08
5.22392e-06
4.57161e-08
5.22642e-06
4.35519e-08
5.22879e-06
4.14519e-08
5.23108e-06
3.94214e-08
5.23333e-06
3.74549e-08
5.23558e-06
3.55066e-08
3.35123e-08
5.23782e-06
5.55269e-06
1.03565e-08
5.55689e-06
2.91709e-08
5.56169e-06
4.08021e-08
5.5663e-06
4.6641e-08
5.57086e-06
4.98666e-08
5.57526e-06
5.1311e-08
5.57936e-06
5.12221e-08
5.58315e-06
5.01664e-08
5.58668e-06
4.86137e-08
5.58997e-06
4.67929e-08
5.59306e-06
4.48274e-08
5.59597e-06
4.28065e-08
5.59873e-06
4.07884e-08
5.60138e-06
3.8803e-08
5.60394e-06
3.68574e-08
5.60645e-06
3.49429e-08
5.60893e-06
3.30277e-08
3.10731e-08
5.61137e-06
5.95104e-06
9.09389e-09
5.95478e-06
2.54239e-08
5.95935e-06
3.62304e-08
5.96391e-06
4.20876e-08
5.96845e-06
4.5322e-08
5.97289e-06
4.68695e-08
5.97709e-06
4.70226e-08
5.98102e-06
4.6235e-08
5.9847e-06
4.49241e-08
5.98817e-06
4.33198e-08
5.99145e-06
4.15473e-08
5.99456e-06
3.96931e-08
5.99754e-06
3.78149e-08
6.0004e-06
3.59429e-08
6.00317e-06
3.40868e-08
6.00587e-06
3.22407e-08
6.00851e-06
3.03844e-08
2.85005e-08
6.01108e-06
6.37798e-06
7.92309e-09
6.38134e-06
2.20621e-08
6.38567e-06
3.19041e-08
6.39015e-06
3.76048e-08
6.39467e-06
4.0801e-08
6.39914e-06
4.24012e-08
6.40342e-06
4.27375e-08
6.40748e-06
4.21791e-08
6.41131e-06
4.10865e-08
6.41495e-06
3.96826e-08
6.4184e-06
3.80925e-08
6.42169e-06
3.63992e-08
6.42485e-06
3.46594e-08
6.42789e-06
3.29047e-08
6.43082e-06
3.11475e-08
6.43368e-06
2.93876e-08
6.43644e-06
2.76138e-08
2.58265e-08
6.43912e-06
5.74176e-06
6.99737e-09
5.74434e-06
1.94795e-08
5.74781e-06
2.84359e-08
5.75153e-06
3.38785e-08
5.75533e-06
3.70006e-08
5.75912e-06
3.86117e-08
5.7628e-06
3.90582e-08
5.76631e-06
3.86615e-08
5.76966e-06
3.77352e-08
5.77285e-06
3.64893e-08
5.7759e-06
3.50459e-08
5.77881e-06
3.34863e-08
5.78161e-06
3.18651e-08
5.7843e-06
3.02145e-08
5.78689e-06
2.85506e-08
5.7894e-06
2.68771e-08
5.79182e-06
2.51903e-08
2.35005e-08
5.79415e-06
6.99914e-06
6.01402e-09
7.00187e-06
1.67471e-08
7.00563e-06
2.46729e-08
7.00979e-06
2.97134e-08
7.01411e-06
3.26827e-08
7.01846e-06
3.42601e-08
7.02273e-06
3.47874e-08
7.02685e-06
3.45396e-08
7.0308e-06
3.37809e-08
7.03459e-06
3.27016e-08
7.03821e-06
3.14195e-08
7.04169e-06
3.00104e-08
7.04503e-06
2.85276e-08
7.04824e-06
2.70042e-08
7.05133e-06
2.54581e-08
7.05431e-06
2.38994e-08
7.05717e-06
2.23282e-08
2.07666e-08
7.0599e-06
8.53188e-06
4.98123e-09
8.53473e-06
1.38914e-08
8.53876e-06
2.06428e-08
8.54336e-06
2.51166e-08
8.54821e-06
2.78288e-08
8.55316e-06
2.93091e-08
8.55808e-06
2.9871e-08
8.56287e-06
2.97456e-08
8.5675e-06
2.91463e-08
8.57196e-06
2.82383e-08
8.57625e-06
2.71283e-08
8.58038e-06
2.58885e-08
8.58434e-06
2.4567e-08
8.58814e-06
2.31976e-08
8.5918e-06
2.18004e-08
8.59531e-06
2.03892e-08
8.59867e-06
1.89699e-08
1.75675e-08
8.60187e-06
1.04003e-05
3.90759e-09
1.04032e-05
1.09328e-08
1.04075e-05
1.6367e-08
1.04125e-05
2.00966e-08
1.04179e-05
2.24224e-08
1.04235e-05
2.37217e-08
1.04292e-05
2.42551e-08
1.04347e-05
2.42101e-08
1.04401e-05
2.37515e-08
1.04453e-05
2.30114e-08
1.04503e-05
2.20839e-08
1.04552e-05
2.10304e-08
1.04599e-05
1.98965e-08
1.04644e-05
1.87119e-08
1.04687e-05
1.74996e-08
1.04728e-05
1.62736e-08
1.04767e-05
1.50445e-08
1.38379e-08
1.04804e-05
1.26779e-05
2.79848e-09
1.2681e-05
7.86479e-09
1.26855e-05
1.18441e-08
1.26909e-05
1.46473e-08
1.26969e-05
1.64357e-08
1.27032e-05
1.74483e-08
1.27096e-05
1.78751e-08
1.27159e-05
1.78556e-08
1.27222e-05
1.75069e-08
1.27283e-05
1.69268e-08
1.27342e-05
1.6187e-08
1.27398e-05
1.53393e-08
1.27453e-05
1.44194e-08
1.27506e-05
1.34552e-08
1.27556e-05
1.24655e-08
1.27604e-05
1.1467e-08
1.2765e-05
1.04677e-08
9.49571e-09
1.27693e-05
1.54543e-05
1.64263e-09
1.54576e-05
4.64206e-09
1.54624e-05
7.01589e-09
1.54683e-05
8.70835e-09
1.5475e-05
9.79404e-09
1.5482e-05
1.03981e-08
1.54893e-05
1.06299e-08
1.54965e-05
1.05734e-08
1.55037e-05
1.0299e-08
1.55108e-05
9.86607e-09
1.55177e-05
9.32106e-09
1.55243e-05
8.69837e-09
1.55307e-05
8.02349e-09
1.55368e-05
7.31625e-09
1.55427e-05
6.59181e-09
1.55483e-05
5.86291e-09
1.55536e-05
5.13715e-09
4.43759e-09
1.55587e-05
1.88389e-05
4.00159e-10
1.88424e-05
1.13905e-09
1.88477e-05
1.70808e-09
1.88543e-05
2.08799e-09
1.88618e-05
2.29919e-09
1.88698e-05
2.36921e-09
1.88781e-05
2.32001e-09
1.88865e-05
2.1712e-09
1.88949e-05
1.94286e-09
1.89031e-05
1.65312e-09
1.89111e-05
1.31718e-09
1.89189e-05
9.47541e-10
1.89263e-05
5.54885e-10
1.89335e-05
1.48392e-10
1.89403e-05
-2.6412e-10
1.89469e-05
-6.75434e-10
1.89531e-05
-1.08139e-09
-1.46448e-09
1.8959e-05
2.29648e-05
-1.03059e-09
2.29688e-05
-2.93382e-09
2.2975e-05
-4.49946e-09
2.29828e-05
-5.69029e-09
2.29916e-05
-6.5272e-09
2.30011e-05
-7.09587e-09
2.30109e-05
-7.48471e-09
2.30208e-05
-7.7472e-09
2.30307e-05
-7.9214e-09
2.30404e-05
-8.03728e-09
2.30498e-05
-8.12e-09
2.30589e-05
-8.18289e-09
2.30677e-05
-8.23512e-09
2.30762e-05
-8.27992e-09
2.30842e-05
-8.32043e-09
2.30919e-05
-8.35575e-09
2.30992e-05
-8.38737e-09
-8.40369e-09
2.31061e-05
1.68118e-05
-2.15397e-09
1.6815e-05
-6.10641e-09
1.68198e-05
-9.3329e-09
1.68258e-05
-1.1693e-08
1.68325e-05
-1.32452e-08
1.68397e-05
-1.42188e-08
1.6847e-05
-1.47998e-08
1.68543e-05
-1.50941e-08
1.68616e-05
-1.51782e-08
1.68687e-05
-1.51269e-08
1.68755e-05
-1.49903e-08
1.68822e-05
-1.48041e-08
1.68885e-05
-1.45863e-08
1.68946e-05
-1.43534e-08
1.69004e-05
-1.41115e-08
1.69059e-05
-1.38678e-08
1.69111e-05
-1.36228e-08
-1.33726e-08
1.69161e-05
1.46356e-05
-3.2328e-09
1.46387e-05
-9.19461e-09
1.46434e-05
-1.4051e-08
1.46492e-05
-1.74418e-08
1.46555e-05
-1.95389e-08
1.46621e-05
-2.0792e-08
1.46687e-05
-2.14722e-08
1.46753e-05
-2.17144e-08
1.46818e-05
-2.1651e-08
1.46881e-05
-2.13974e-08
1.46941e-05
-2.10302e-08
1.46999e-05
-2.05933e-08
1.47054e-05
-2.01176e-08
1.47107e-05
-1.96236e-08
1.47157e-05
-1.91253e-08
1.47205e-05
-1.86292e-08
1.4725e-05
-1.8141e-08
-1.76555e-08
1.47293e-05
1.27411e-05
-4.24262e-09
1.27443e-05
-1.23225e-08
1.27491e-05
-1.88854e-08
1.27547e-05
-2.3093e-08
1.27607e-05
-2.55255e-08
1.27669e-05
-2.69576e-08
1.27731e-05
-2.76522e-08
1.27791e-05
-2.77587e-08
1.27849e-05
-2.74843e-08
1.27905e-05
-2.69943e-08
1.27959e-05
-2.63786e-08
1.2801e-05
-2.56881e-08
1.28058e-05
-2.49609e-08
1.28104e-05
-2.42212e-08
1.28148e-05
-2.34863e-08
1.28189e-05
-2.27623e-08
1.28228e-05
-2.20559e-08
-2.13626e-08
1.28265e-05
1.10918e-05
-5.08488e-09
1.1095e-05
-1.55447e-08
1.11001e-05
-2.40152e-08
1.11057e-05
-2.87224e-08
1.11115e-05
-3.12659e-08
1.11173e-05
-3.27768e-08
1.1123e-05
-3.33863e-08
1.11286e-05
-3.32767e-08
1.11338e-05
-3.27504e-08
1.11388e-05
-3.20049e-08
1.11436e-05
-3.11315e-08
1.11481e-05
-3.01877e-08
1.11523e-05
-2.92155e-08
1.11563e-05
-2.82448e-08
1.11602e-05
-2.72892e-08
1.11637e-05
-2.63586e-08
1.11671e-05
-2.54549e-08
-2.45778e-08
1.11704e-05
9.65581e-06
-5.68367e-09
9.65924e-06
-1.89748e-08
9.66459e-06
-2.93651e-08
9.67009e-06
-3.42235e-08
9.67565e-06
-3.68275e-08
9.68121e-06
-3.83393e-08
9.68655e-06
-3.87225e-08
9.69158e-06
-3.83083e-08
9.69633e-06
-3.74993e-08
9.70081e-06
-3.64895e-08
9.70503e-06
-3.53578e-08
9.70901e-06
-3.4164e-08
9.71275e-06
-3.29554e-08
9.71626e-06
-3.17613e-08
9.71957e-06
-3.05971e-08
9.72268e-06
-2.94695e-08
9.7256e-06
-2.83807e-08
-2.73276e-08
9.72835e-06
8.4053e-06
-5.62702e-09
8.40964e-06
-2.33164e-08
8.41488e-06
-3.46053e-08
8.4199e-06
-3.92536e-08
8.42527e-06
-4.21949e-08
8.43068e-06
-4.3749e-08
8.43577e-06
-4.381e-08
8.44047e-06
-4.30165e-08
8.44484e-06
-4.18709e-08
8.4489e-06
-4.05488e-08
8.45266e-06
-3.91206e-08
8.45615e-06
-3.76484e-08
8.45937e-06
-3.61817e-08
8.46236e-06
-3.4748e-08
8.46512e-06
-3.33626e-08
8.46768e-06
-3.20315e-08
8.47006e-06
-3.07569e-08
-2.95349e-08
8.47226e-06
7.3145e-06
-2.83829e-09
7.32119e-06
-3.00136e-08
7.32675e-06
-4.01615e-08
7.3317e-06
-4.42033e-08
7.33709e-06
-4.75935e-08
7.34241e-06
-4.90708e-08
7.34729e-06
-4.86888e-08
7.35171e-06
-4.74308e-08
7.35568e-06
-4.58504e-08
7.35924e-06
-4.4106e-08
7.3624e-06
-4.22784e-08
7.36519e-06
-4.04414e-08
7.36765e-06
-3.86457e-08
7.36982e-06
-3.69161e-08
7.37173e-06
-3.52681e-08
7.3734e-06
-3.37041e-08
7.37486e-06
-3.22247e-08
-3.08204e-08
7.37615e-06
6.36243e-06
4.79473e-09
6.3719e-06
-3.94803e-08
6.37932e-06
-4.7588e-08
6.38596e-06
-5.08416e-08
6.39224e-06
-5.38759e-08
6.39756e-06
-5.43848e-08
6.40185e-06
-5.2984e-08
6.40533e-06
-5.09123e-08
6.40813e-06
-4.86517e-08
6.41032e-06
-4.62915e-08
6.41195e-06
-4.39125e-08
6.4131e-06
-4.15895e-08
6.41383e-06
-3.93739e-08
6.41419e-06
-3.72833e-08
6.41426e-06
-3.5332e-08
6.41407e-06
-3.35159e-08
6.41368e-06
-3.18358e-08
-3.02729e-08
6.41313e-06
5.54131e-06
8.95043e-09
5.55033e-06
-4.84986e-08
5.55834e-06
-5.56012e-08
5.56604e-06
-5.85493e-08
5.57251e-06
-6.03375e-08
5.57683e-06
-5.87109e-08
5.57907e-06
-5.52261e-08
5.57963e-06
-5.14726e-08
5.57888e-06
-4.78995e-08
5.57709e-06
-4.45077e-08
5.5745e-06
-4.13201e-08
5.57129e-06
-3.83773e-08
5.5676e-06
-3.56877e-08
5.56356e-06
-3.32429e-08
5.55927e-06
-3.10401e-08
5.55481e-06
-2.90622e-08
5.55029e-06
-2.73113e-08
-2.57378e-08
5.54575e-06
4.86021e-06
-2.36562e-08
4.86538e-06
-5.36662e-08
4.86523e-06
-5.54522e-08
4.86217e-06
-5.54889e-08
4.857e-06
-5.51659e-08
4.84949e-06
-5.12096e-08
4.8398e-06
-4.55347e-08
4.82841e-06
-4.00812e-08
4.81583e-06
-3.53238e-08
4.80255e-06
-3.12312e-08
4.78896e-06
-2.77238e-08
4.77532e-06
-2.47409e-08
4.76184e-06
-2.22051e-08
4.74864e-06
-2.00453e-08
4.73581e-06
-1.82151e-08
4.72343e-06
-1.66816e-08
4.7116e-06
-1.54826e-08
-1.51375e-08
4.701e-06
4.17902e-06
4.12535e-06
4.0699e-06
4.01441e-06
3.95925e-06
3.90804e-06
3.8625e-06
3.82242e-06
3.7871e-06
3.75587e-06
3.72814e-06
3.7034e-06
3.6812e-06
3.66115e-06
3.64293e-06
3.62625e-06
3.61077e-06
3.59563e-06
1.45813e-08
-1.46246e-08
2.79727e-08
-1.34755e-08
3.50684e-08
-7.13309e-09
3.51695e-08
-1.6638e-10
2.91437e-08
6.0053e-09
1.82389e-08
1.08462e-08
3.84492e-09
1.43878e-08
-1.31106e-08
1.69024e-08
-3.18156e-08
1.8706e-08
-5.1896e-08
2.00323e-08
-7.29554e-08
2.10634e-08
-9.49168e-08
2.19178e-08
-1.17583e-07
2.26715e-08
-1.40983e-07
2.33621e-08
-1.64991e-07
2.40146e-08
-1.8966e-07
2.46378e-08
-2.14894e-07
2.52432e-08
-2.4076e-07
2.58381e-08
-2.67194e-07
2.64422e-08
-2.94301e-07
2.70778e-08
-3.22074e-07
2.77803e-08
-3.50636e-07
2.85289e-08
-3.79804e-07
2.9171e-08
-4.09626e-07
2.97882e-08
-4.39869e-07
3.02421e-08
-4.70038e-07
3.01382e-08
-5.00214e-07
3.01756e-08
-5.31696e-07
3.14523e-08
-5.65079e-07
3.33812e-08
-6.00499e-07
3.53906e-08
-6.38357e-07
3.78561e-08
-6.78021e-07
3.96323e-08
-7.19092e-07
4.10691e-08
-7.65937e-07
4.68048e-08
-8.09006e-07
4.3072e-08
-8.42936e-07
3.38834e-08
-8.80375e-07
3.74468e-08
-9.20996e-07
4.05746e-08
-9.63109e-07
4.21227e-08
-1.0056e-06
4.245e-08
-1.04838e-06
4.27843e-08
-1.09141e-06
4.29933e-08
-1.13449e-06
4.30929e-08
-1.17763e-06
4.31015e-08
-1.22067e-06
4.30571e-08
-1.26367e-06
4.29666e-08
-1.3065e-06
4.28522e-08
-1.34925e-06
4.27108e-08
-1.39178e-06
4.2557e-08
-1.43421e-06
4.23833e-08
-1.47639e-06
4.22017e-08
-1.51844e-06
4.20014e-08
-1.56023e-06
4.17923e-08
-1.60184e-06
4.15639e-08
-1.64315e-06
4.13248e-08
-1.68426e-06
4.10619e-08
-1.72504e-06
4.07836e-08
-1.76555e-06
4.04781e-08
-1.8057e-06
4.01533e-08
-1.84553e-06
3.97959e-08
-1.88494e-06
3.94142e-08
-1.92396e-06
3.89966e-08
-1.9625e-06
3.85508e-08
-2.00058e-06
3.80639e-08
-2.03811e-06
3.75445e-08
-2.07511e-06
3.69803e-08
-2.11147e-06
3.63802e-08
-2.14722e-06
3.57322e-08
-2.18225e-06
3.50456e-08
-2.21658e-06
3.43087e-08
-2.25009e-06
3.35308e-08
-2.28281e-06
3.27007e-08
-2.31461e-06
3.18272e-08
-2.34553e-06
3.08995e-08
-2.37544e-06
2.99268e-08
-2.40436e-06
2.88987e-08
-2.43218e-06
2.78242e-08
-2.45889e-06
2.6695e-08
-2.4844e-06
2.55191e-08
-2.5087e-06
2.42868e-08
-2.53169e-06
2.30057e-08
-2.55337e-06
2.16677e-08
-2.57363e-06
2.02792e-08
-2.59246e-06
1.88304e-08
-2.60977e-06
1.73268e-08
-2.62553e-06
1.57591e-08
-2.63964e-06
1.413e-08
-2.65205e-06
1.24278e-08
-2.66267e-06
1.06499e-08
-2.67141e-06
8.78276e-09
-2.67819e-06
6.81053e-09
-2.68289e-06
4.71773e-09
-2.68541e-06
2.5181e-09
-2.6857e-06
2.8581e-10
-2.68393e-06
-1.76945e-09
-2.68031e-06
-3.62916e-09
-2.67486e-06
-5.44822e-09
-2.66761e-06
-7.26072e-09
-2.65853e-06
-9.0798e-09
-2.64762e-06
-1.09078e-08
-2.63488e-06
-1.27418e-08
-2.6203e-06
-1.45793e-08
-2.60387e-06
-1.64158e-08
-2.58561e-06
-1.82472e-08
-2.56552e-06
-2.00702e-08
-2.54361e-06
-2.18792e-08
-2.51991e-06
-2.36722e-08
-2.49443e-06
-2.54416e-08
-2.4672e-06
-2.71864e-08
-2.43826e-06
-2.88974e-08
-2.40765e-06
-3.05748e-08
-2.3754e-06
-3.22078e-08
-2.34157e-06
-3.37979e-08
-2.30619e-06
-3.53328e-08
-2.26935e-06
-3.68162e-08
-2.23108e-06
-3.82348e-08
-2.19146e-06
-3.95932e-08
-2.15056e-06
-4.08779e-08
-2.10846e-06
-4.20943e-08
-2.06521e-06
-4.32294e-08
-2.02091e-06
-4.42875e-08
-1.97561e-06
-4.5259e-08
-1.92941e-06
-4.61594e-08
-1.88239e-06
-4.69799e-08
-1.83466e-06
-4.77183e-08
-1.78631e-06
-4.83577e-08
-1.73743e-06
-4.89199e-08
-1.68809e-06
-4.93893e-08
-1.6384e-06
-4.97735e-08
-1.58845e-06
-5.00611e-08
-1.53832e-06
-5.02607e-08
-1.48811e-06
-5.03651e-08
-1.43791e-06
-5.03792e-08
-1.3878e-06
-5.03029e-08
-1.33786e-06
-5.01374e-08
-1.28818e-06
-4.98914e-08
-1.23881e-06
-4.95583e-08
-1.18982e-06
-4.91506e-08
-1.14124e-06
-4.86519e-08
-1.09315e-06
-4.809e-08
-1.04562e-06
-4.74647e-08
-9.98712e-07
-4.68088e-08
-9.52467e-07
-4.61212e-08
-9.06902e-07
-4.54219e-08
-8.62031e-07
-4.46988e-08
-8.17863e-07
-4.39766e-08
-7.74394e-07
-4.32448e-08
-7.31617e-07
-4.25334e-08
-6.89504e-07
-4.18315e-08
-6.48027e-07
-4.11694e-08
-6.07142e-07
-4.05351e-08
-5.66797e-07
-3.99631e-08
-5.26926e-07
-3.94435e-08
-4.8746e-07
-3.90076e-08
-4.48318e-07
-3.86428e-08
-4.09405e-07
-3.83862e-08
-3.70619e-07
-3.82255e-08
-3.3185e-07
-3.81873e-08
-2.92976e-07
-3.82692e-08
-2.53855e-07
-3.85005e-08
-2.14363e-07
-3.88577e-08
-1.74331e-07
-3.93867e-08
-1.33576e-07
-4.01072e-08
-9.19813e-08
-4.09416e-08
-4.95474e-08
-4.1792e-08
-6.37538e-09
-4.25314e-08
3.73566e-08
-4.31204e-08
8.19715e-08
-4.40233e-08
1.28128e-07
-4.56149e-08
1.76409e-07
-4.77617e-08
2.27141e-07
-5.02654e-08
2.80581e-07
-5.29951e-08
3.36822e-07
-5.58516e-08
3.9586e-07
-5.86708e-08
4.57429e-07
-6.1264e-08
5.20962e-07
-6.32531e-08
5.85136e-07
-6.39586e-08
6.46798e-07
-6.14723e-08
6.98671e-07
-5.1732e-08
-2.32976e-09
7.01154e-07
7.88947e-09
-2.25522e-08
7.88236e-09
-1.35207e-08
3.19386e-09
-2.46809e-09
-4.72204e-09
7.71962e-09
-1.54048e-08
1.66748e-08
-2.8815e-08
2.42315e-08
-4.48061e-08
3.03704e-08
-6.31569e-08
3.52299e-08
-8.35028e-08
3.90459e-08
-1.05568e-07
4.20752e-08
-1.29059e-07
4.45494e-08
-1.53815e-07
4.66522e-08
-1.79666e-07
4.8519e-08
-2.06566e-07
5.02433e-08
-2.34442e-07
5.18889e-08
-2.63318e-07
5.34986e-08
-2.93177e-07
5.51025e-08
-3.24073e-07
5.67209e-08
-3.55998e-07
5.83676e-08
-3.88985e-07
6.00508e-08
-4.22984e-07
6.17777e-08
-4.58019e-07
6.3549e-08
-4.942e-07
6.53486e-08
-5.31591e-07
6.7162e-08
-5.70284e-07
6.8931e-08
-6.10751e-07
7.05903e-08
-6.52991e-07
7.24108e-08
-6.9628e-07
7.47259e-08
-7.40259e-07
7.73543e-08
-7.84826e-07
7.99423e-08
-8.29307e-07
8.2331e-08
-8.73912e-07
8.42195e-08
-9.18577e-07
8.57274e-08
-9.58787e-07
8.69968e-08
-1.00136e-06
8.5636e-08
-1.05032e-06
8.28249e-08
-1.09547e-06
8.25975e-08
-1.13807e-06
8.31506e-08
-1.17948e-06
8.35278e-08
-1.22056e-06
8.35116e-08
-1.26113e-06
8.33565e-08
-1.30129e-06
8.31361e-08
-1.34106e-06
8.28589e-08
-1.3805e-06
8.2532e-08
-1.41961e-06
8.21666e-08
-1.45843e-06
8.1769e-08
-1.49692e-06
8.13474e-08
-1.53512e-06
8.09032e-08
-1.573e-06
8.04403e-08
-1.61059e-06
7.99565e-08
-1.64784e-06
7.94527e-08
-1.68478e-06
7.89249e-08
-1.72136e-06
7.83729e-08
-1.75761e-06
7.77912e-08
-1.79346e-06
7.71781e-08
-1.82895e-06
7.65274e-08
-1.864e-06
7.58375e-08
-1.89864e-06
7.51021e-08
-1.93281e-06
7.43191e-08
-1.96651e-06
7.34822e-08
-1.99969e-06
7.25902e-08
-2.03234e-06
7.16368e-08
-2.06442e-06
7.0621e-08
-2.0959e-06
6.95366e-08
-2.12673e-06
6.83828e-08
-2.15691e-06
6.71541e-08
-2.18638e-06
6.58505e-08
-2.21512e-06
6.4467e-08
-2.24308e-06
6.30043e-08
-2.27023e-06
6.14574e-08
-2.29652e-06
5.98276e-08
-2.32193e-06
5.81101e-08
-2.34641e-06
5.63066e-08
-2.36992e-06
5.44125e-08
-2.39243e-06
5.24298e-08
-2.41389e-06
5.0355e-08
-2.43425e-06
4.81906e-08
-2.4535e-06
4.59336e-08
-2.47156e-06
4.3586e-08
-2.48842e-06
4.11445e-08
-2.50402e-06
3.86116e-08
-2.51834e-06
3.59842e-08
-2.53132e-06
3.32642e-08
-2.54293e-06
3.04485e-08
-2.55314e-06
2.75393e-08
-2.56191e-06
2.45342e-08
-2.5692e-06
2.14351e-08
-2.575e-06
1.82407e-08
-2.57929e-06
1.49534e-08
-2.58205e-06
1.15766e-08
-2.58335e-06
8.11894e-09
-2.58323e-06
4.60663e-09
-2.58179e-06
1.08276e-09
-2.5791e-06
-2.41423e-09
-2.57497e-06
-5.9021e-09
-2.56919e-06
-9.4162e-09
-2.56168e-06
-1.29571e-08
-2.55242e-06
-1.65229e-08
-2.54139e-06
-2.01123e-08
-2.52858e-06
-2.37213e-08
-2.51398e-06
-2.73428e-08
-2.49759e-06
-3.09701e-08
-2.4794e-06
-3.45947e-08
-2.45943e-06
-3.82087e-08
-2.43768e-06
-4.18035e-08
-2.41417e-06
-4.53709e-08
-2.38892e-06
-4.89018e-08
-2.36195e-06
-5.23871e-08
-2.33329e-06
-5.58174e-08
-2.30298e-06
-5.91826e-08
-2.27106e-06
-6.24736e-08
-2.23756e-06
-6.56797e-08
-2.20254e-06
-6.87921e-08
-2.16605e-06
-7.18e-08
-2.12815e-06
-7.46955e-08
-2.0889e-06
-7.74681e-08
-2.04836e-06
-8.01109e-08
-2.00661e-06
-8.26146e-08
-1.96373e-06
-8.4973e-08
-1.91978e-06
-8.71757e-08
-1.87483e-06
-8.92186e-08
-1.82897e-06
-9.10946e-08
-1.78228e-06
-9.28141e-08
-1.73486e-06
-9.43792e-08
-1.68679e-06
-9.57755e-08
-1.63817e-06
-9.69881e-08
-1.58907e-06
-9.80355e-08
-1.53958e-06
-9.8907e-08
-1.4898e-06
-9.96032e-08
-1.4398e-06
-1.00116e-07
-1.38968e-06
-1.00451e-07
-1.33952e-06
-1.00604e-07
-1.28942e-06
-1.00581e-07
-1.23944e-06
-1.00382e-07
-1.18967e-06
-1.00016e-07
-1.14018e-06
-9.94889e-08
-1.09103e-06
-9.88084e-08
-1.04227e-06
-9.79732e-08
-9.93959e-07
-9.69963e-08
-9.46138e-07
-9.58878e-08
-8.98878e-07
-9.46838e-08
-8.5222e-07
-9.34014e-08
-8.06201e-07
-9.20778e-08
-7.60825e-07
-9.07113e-08
-7.16107e-07
-8.93319e-08
-6.72035e-07
-8.79366e-08
-6.28606e-07
-8.65623e-08
-5.8579e-07
-8.52084e-08
-5.43562e-07
-8.39171e-08
-5.01871e-07
-8.26852e-08
-4.6067e-07
-8.15572e-08
-4.19885e-07
-8.05323e-08
-3.79447e-07
-7.96613e-08
-3.3926e-07
-7.89378e-08
-2.99232e-07
-7.84114e-08
-2.59241e-07
-7.80831e-08
-2.1917e-07
-7.80033e-08
-1.78874e-07
-7.816e-08
-1.38208e-07
-7.86161e-08
-9.69977e-08
-7.93671e-08
-5.50843e-08
-8.04358e-08
-1.23191e-08
-8.17976e-08
3.13776e-08
-8.34627e-08
7.6191e-08
-8.54044e-08
1.22439e-07
-8.77092e-08
1.7054e-07
-9.02985e-08
2.20891e-07
-9.31596e-08
2.73677e-07
-9.65017e-08
3.28897e-07
-1.00549e-07
3.86632e-07
-1.05221e-07
4.46972e-07
-1.10351e-07
5.09964e-07
-1.15747e-07
5.75541e-07
-1.2121e-07
6.43518e-07
-1.26448e-07
7.13478e-07
-1.31048e-07
7.84704e-07
-1.34328e-07
8.55766e-07
-1.34893e-07
9.24611e-07
-1.3022e-07
9.85553e-07
-1.12596e-07
-5.82484e-08
1.04155e-06
-3.39881e-09
-1.91804e-08
-1.28132e-08
-4.13949e-09
-2.45085e-08
9.2136e-09
-3.77197e-08
2.09131e-08
-5.22759e-08
3.1223e-08
-6.82839e-08
4.02239e-08
-8.58698e-08
4.79502e-08
-1.05136e-07
5.44809e-08
-1.26057e-07
5.99612e-08
-1.48577e-07
6.45789e-08
-1.72564e-07
6.85315e-08
-1.97926e-07
7.19998e-08
-2.24547e-07
7.51359e-08
-2.52376e-07
7.80588e-08
-2.81348e-07
8.08583e-08
-3.11459e-07
8.3599e-08
-3.42683e-07
8.63256e-08
-3.75037e-07
8.90654e-08
-4.08501e-07
9.18308e-08
-4.43081e-07
9.46213e-08
-4.7873e-07
9.7425e-08
-5.1541e-07
1.00218e-07
-5.53031e-07
1.02968e-07
-5.91515e-07
1.05635e-07
-6.30766e-07
1.0818e-07
-6.70776e-07
1.1059e-07
-7.1131e-07
1.12943e-07
-7.51911e-07
1.15317e-07
-7.92177e-07
1.17617e-07
-8.31941e-07
1.19696e-07
-8.71042e-07
1.21427e-07
-9.09473e-07
1.2264e-07
-9.47052e-07
1.233e-07
-9.83501e-07
1.23434e-07
-1.02054e-06
1.2267e-07
-1.05915e-06
1.21424e-07
-1.09725e-06
1.20688e-07
-1.13442e-06
1.20309e-07
-1.17085e-06
1.19951e-07
-1.20685e-06
1.19507e-07
-1.24252e-06
1.19015e-07
-1.27788e-06
1.18489e-07
-1.31296e-06
1.17936e-07
-1.34779e-06
1.17358e-07
-1.38239e-06
1.16757e-07
-1.41676e-06
1.16135e-07
-1.45091e-06
1.15493e-07
-1.48484e-06
1.14829e-07
-1.51854e-06
1.14141e-07
-1.55201e-06
1.13428e-07
-1.58525e-06
1.12685e-07
-1.61823e-06
1.11907e-07
-1.65096e-06
1.11092e-07
-1.6834e-06
1.10232e-07
-1.71555e-06
1.09323e-07
-1.74739e-06
1.08358e-07
-1.77889e-06
1.07334e-07
-1.81004e-06
1.06242e-07
-1.8408e-06
1.05078e-07
-1.87116e-06
1.03837e-07
-1.90109e-06
1.02513e-07
-1.93056e-06
1.011e-07
-1.95954e-06
9.95947e-08
-1.988e-06
9.79913e-08
-2.0159e-06
9.62859e-08
-2.04323e-06
9.44739e-08
-2.06993e-06
9.25523e-08
-2.09599e-06
9.0517e-08
-2.12135e-06
8.83657e-08
-2.14599e-06
8.6095e-08
-2.16986e-06
8.37029e-08
-2.19294e-06
8.11865e-08
-2.21517e-06
7.85443e-08
-2.23653e-06
7.57742e-08
-2.25698e-06
7.2875e-08
-2.27647e-06
6.98454e-08
-2.29496e-06
6.66855e-08
-2.31242e-06
6.33941e-08
-2.32881e-06
5.99714e-08
-2.34408e-06
5.64166e-08
-2.3582e-06
5.27304e-08
-2.37112e-06
4.89126e-08
-2.38282e-06
4.49644e-08
-2.39325e-06
4.08861e-08
-2.40239e-06
3.66802e-08
-2.4102e-06
3.23484e-08
-2.41666e-06
2.78949e-08
-2.42173e-06
2.33239e-08
-2.42541e-06
1.8643e-08
-2.42768e-06
1.38611e-08
-2.42854e-06
8.99305e-09
-2.42799e-06
4.06017e-09
-2.426e-06
-9.16125e-10
-2.42249e-06
-5.92918e-09
-2.41739e-06
-1.1e-08
-2.41067e-06
-1.61409e-08
-2.40229e-06
-2.13431e-08
-2.39222e-06
-2.65953e-08
-2.38045e-06
-3.18888e-08
-2.36696e-06
-3.7213e-08
-2.35175e-06
-4.25572e-08
-2.3348e-06
-4.79093e-08
-2.31614e-06
-5.32572e-08
-2.29575e-06
-5.85886e-08
-2.27365e-06
-6.38904e-08
-2.24986e-06
-6.91504e-08
-2.22439e-06
-7.43541e-08
-2.19727e-06
-7.94888e-08
-2.16853e-06
-8.45389e-08
-2.1382e-06
-8.94915e-08
-2.10632e-06
-9.43302e-08
-2.07294e-06
-9.90423e-08
-2.03811e-06
-1.03611e-07
-2.00187e-06
-1.08025e-07
-1.96428e-06
-1.12268e-07
-1.9254e-06
-1.16329e-07
-1.88531e-06
-1.20193e-07
-1.84406e-06
-1.23852e-07
-1.80174e-06
-1.27291e-07
-1.75841e-06
-1.305e-07
-1.71414e-06
-1.3347e-07
-1.66902e-06
-1.36195e-07
-1.62314e-06
-1.38677e-07
-1.57657e-06
-1.40929e-07
-1.52941e-06
-1.42931e-07
-1.48173e-06
-1.44671e-07
-1.43361e-06
-1.46157e-07
-1.38515e-06
-1.47389e-07
-1.33643e-06
-1.4836e-07
-1.28752e-06
-1.49068e-07
-1.2385e-06
-1.49512e-07
-1.18947e-06
-1.49694e-07
-1.1405e-06
-1.49618e-07
-1.09167e-06
-1.49291e-07
-1.04304e-06
-1.48723e-07
-9.94677e-07
-1.47924e-07
-9.46647e-07
-1.46906e-07
-8.98995e-07
-1.45675e-07
-8.51762e-07
-1.44247e-07
-8.04999e-07
-1.42647e-07
-7.5875e-07
-1.40908e-07
-7.13057e-07
-1.39071e-07
-6.67938e-07
-1.37164e-07
-6.23404e-07
-1.35215e-07
-5.79447e-07
-1.33245e-07
-5.36065e-07
-1.31278e-07
-4.9323e-07
-1.29342e-07
-4.50921e-07
-1.27467e-07
-4.09089e-07
-1.25683e-07
-3.67691e-07
-1.24021e-07
-3.26656e-07
-1.22513e-07
-2.8592e-07
-1.21194e-07
-2.45388e-07
-1.20101e-07
-2.04973e-07
-1.19266e-07
-1.64557e-07
-1.18724e-07
-1.24027e-07
-1.18516e-07
-8.32393e-08
-1.18681e-07
-4.20583e-08
-1.1924e-07
-3.33627e-10
-1.2023e-07
4.20718e-08
-1.21672e-07
8.53484e-08
-1.23606e-07
1.29711e-07
-1.26066e-07
1.75399e-07
-1.29052e-07
2.22648e-07
-1.32568e-07
2.71687e-07
-1.36659e-07
3.22768e-07
-1.41302e-07
3.76186e-07
-1.46497e-07
4.32113e-07
-1.52358e-07
4.906e-07
-1.58964e-07
5.51678e-07
-1.66234e-07
6.15368e-07
-1.73976e-07
6.81635e-07
-1.81956e-07
7.50356e-07
-1.89873e-07
8.21284e-07
-1.97325e-07
8.93988e-07
-2.03702e-07
9.6777e-07
-2.08068e-07
1.04155e-06
-2.08639e-07
1.11384e-06
-2.02474e-07
1.18303e-06
-1.81756e-07
-1.3046e-07
1.25528e-06
-1.21135e-08
-7.0873e-09
-2.76348e-08
1.13581e-08
-4.41095e-08
2.56795e-08
-6.11813e-08
3.79716e-08
-7.88544e-08
4.88906e-08
-9.72902e-08
5.86475e-08
-1.16663e-07
6.7318e-08
-1.37155e-07
7.49611e-08
-1.58866e-07
8.16675e-08
-1.81863e-07
8.75628e-08
-2.06129e-07
9.27929e-08
-2.31647e-07
9.7506e-08
-2.58352e-07
1.01838e-07
-2.86208e-07
1.05904e-07
-3.15147e-07
1.09795e-07
-3.45134e-07
1.13578e-07
-3.76107e-07
1.17297e-07
-4.08027e-07
1.20977e-07
-4.40816e-07
1.2462e-07
-4.74414e-07
1.28211e-07
-5.08709e-07
1.31719e-07
-5.43598e-07
1.351e-07
-5.78931e-07
1.383e-07
-6.14574e-07
1.4127e-07
-6.50368e-07
1.43973e-07
-6.86189e-07
1.46404e-07
-7.21847e-07
1.48599e-07
-7.57132e-07
1.50596e-07
-7.91888e-07
1.5237e-07
-8.26063e-07
1.53864e-07
-8.59646e-07
1.55007e-07
-8.92741e-07
1.55726e-07
-9.2544e-07
1.55995e-07
-9.57846e-07
1.55831e-07
-9.90414e-07
1.55232e-07
-1.02338e-06
1.54384e-07
-1.05628e-06
1.53581e-07
-1.08886e-06
1.52879e-07
-1.12113e-06
1.52211e-07
-1.15316e-06
1.51532e-07
-1.18499e-06
1.5084e-07
-1.21664e-06
1.50135e-07
-1.24813e-06
1.49416e-07
-1.27946e-06
1.48682e-07
-1.31063e-06
1.47932e-07
-1.34167e-06
1.47163e-07
-1.37254e-06
1.46372e-07
-1.40328e-06
1.45556e-07
-1.43384e-06
1.4471e-07
-1.46425e-06
1.4383e-07
-1.49447e-06
1.42909e-07
-1.52451e-06
1.41941e-07
-1.55434e-06
1.40921e-07
-1.58395e-06
1.3984e-07
-1.61332e-06
1.38691e-07
-1.64243e-06
1.37468e-07
-1.67127e-06
1.36163e-07
-1.6998e-06
1.3477e-07
-1.728e-06
1.3328e-07
-1.75586e-06
1.31687e-07
-1.78334e-06
1.29985e-07
-1.81041e-06
1.28166e-07
-1.83704e-06
1.26225e-07
-1.86321e-06
1.24157e-07
-1.88889e-06
1.21955e-07
-1.91403e-06
1.19614e-07
-1.93861e-06
1.1713e-07
-1.96259e-06
1.14498e-07
-1.98595e-06
1.11715e-07
-2.00863e-06
1.08776e-07
-2.0306e-06
1.05679e-07
-2.05184e-06
1.02421e-07
-2.07229e-06
9.89993e-08
-2.09193e-06
9.54114e-08
-2.11071e-06
9.16557e-08
-2.12859e-06
8.77311e-08
-2.14554e-06
8.36368e-08
-2.16152e-06
7.93721e-08
-2.17648e-06
7.49371e-08
-2.19039e-06
7.03316e-08
-2.20322e-06
6.55566e-08
-2.21492e-06
6.0613e-08
-2.22545e-06
5.55024e-08
-2.23479e-06
5.02272e-08
-2.2429e-06
4.47906e-08
-2.24974e-06
3.91969e-08
-2.2553e-06
3.34514e-08
-2.25953e-06
2.75615e-08
-2.26241e-06
2.15353e-08
-2.26393e-06
1.53843e-08
-2.26405e-06
9.11985e-09
-2.26274e-06
2.75724e-09
-2.25997e-06
-3.69318e-09
-2.25567e-06
-1.02295e-08
-2.24982e-06
-1.68596e-08
-2.24238e-06
-2.35832e-08
-2.23334e-06
-3.03907e-08
-2.22267e-06
-3.72676e-08
-2.21036e-06
-4.42011e-08
-2.1964e-06
-5.11758e-08
-2.18078e-06
-5.81772e-08
-2.1635e-06
-6.51888e-08
-2.14455e-06
-7.21948e-08
-2.12396e-06
-7.91783e-08
-2.10171e-06
-8.61223e-08
-2.07784e-06
-9.30097e-08
-2.05236e-06
-9.98217e-08
-2.02529e-06
-1.06541e-07
-1.99667e-06
-1.13147e-07
-1.96652e-06
-1.19622e-07
-1.93489e-06
-1.25946e-07
-1.90182e-06
-1.321e-07
-1.86735e-06
-1.38064e-07
-1.83154e-06
-1.43822e-07
-1.79444e-06
-1.49352e-07
-1.75612e-06
-1.54641e-07
-1.71663e-06
-1.5967e-07