/*--------------------------------*- C++ -*----------------------------------*\
  =========                 |
  \\      /  F ield         | OpenFOAM: The Open Source CFD Toolbox
   \\    /   O peration     | Website:  https://openfoam.org
    \\  /    A nd           | Version:  12
     \\/     M anipulation  |
\*---------------------------------------------------------------------------*/
FoamFile
{
    format      ascii;
    class       volVectorField;
    location    "200";
    object      U;
}
// * * * * * * * * * * * * * * * * * * * * * * * * * * * * * * * * * * * * * //

dimensions      [0 1 -1 0 0 0 0];

internalField   nonuniform List<vector> 
12225
(
(9.85697 -0.886445 0)
(9.66664 -0.740745 0)
(9.4557 -0.429481 0)
(9.22451 -0.222211 0)
(9.00645 -0.106455 0)
(8.81432 -0.0458646 0)
(8.64739 -0.0151707 0)
(8.50519 0.00045629 0)
(8.38347 0.00839436 0)
(8.28066 0.0122888 0)
(8.19217 0.0140089 0)
(8.11591 0.0150352 0)
(8.04902 0.0153958 0)
(7.98978 0.0156611 0)
(7.93641 0.0155796 0)
(7.88947 0.0164355 0)
(7.83456 0.0197419 0)
(7.82507 0.0118534 0)
(10.0545 0.227567 0)
(10.121 0.326911 0)
(10.1196 0.261573 0)
(10.0856 0.186543 0)
(10.0434 0.134672 0)
(9.99669 0.10112 0)
(9.94397 0.0792949 0)
(9.8852 0.0645765 0)
(9.82382 0.054275 0)
(9.76126 0.0466936 0)
(9.69977 0.0409366 0)
(9.6399 0.0363983 0)
(9.58253 0.0327683 0)
(9.52809 0.0299301 0)
(9.47607 0.0275234 0)
(9.42852 0.0264483 0)
(9.38025 0.0233835 0)
(9.34579 0.0339927 0)
(10.0035 0.0579189 0)
(10.0303 0.0560083 0)
(10.0561 0.0337829 0)
(10.0703 0.0329013 0)
(10.077 0.0406529 0)
(10.0778 0.0465533 0)
(10.0725 0.0493712 0)
(10.0613 0.050321 0)
(10.0461 0.0502262 0)
(10.0276 0.0495224 0)
(10.0071 0.0484933 0)
(9.9848 0.0473515 0)
(9.96161 0.0461965 0)
(9.9379 0.0451805 0)
(9.91385 0.0441803 0)
(9.89031 0.0439741 0)
(9.86684 0.0433461 0)
(9.845 0.0458729 0)
(9.99779 0.0110543 0)
(10.011 0.0266102 0)
(10.035 0.037155 0)
(10.0525 0.0480923 0)
(10.0643 0.0554623 0)
(10.0734 0.0581981 0)
(10.0794 0.0583732 0)
(10.0823 0.0576381 0)
(10.0827 0.0565993 0)
(10.0811 0.0554173 0)
(10.078 0.0541655 0)
(10.0736 0.052966 0)
(10.0682 0.0518172 0)
(10.062 0.0508385 0)
(10.0551 0.0499304 0)
(10.0481 0.0495747 0)
(10.041 0.0491328 0)
(10.034 0.0498179 0)
(9.99935 0.0071991 0)
(10.009 0.0316574 0)
(10.0275 0.0439283 0)
(10.0418 0.049932 0)
(10.0528 0.0536251 0)
(10.0628 0.0552544 0)
(10.0715 0.0555411 0)
(10.0783 0.0552601 0)
(10.0834 0.0547292 0)
(10.0872 0.0540426 0)
(10.0899 0.0532581 0)
(10.0918 0.0524747 0)
(10.0929 0.051713 0)
(10.0935 0.05106 0)
(10.0936 0.0504792 0)
(10.0935 0.0502156 0)
(10.0933 0.0499618 0)
(10.0933 0.050047 0)
(10.0003 0.00917977 0)
(10.0083 0.0311737 0)
(10.0227 0.0409512 0)
(10.0349 0.0454043 0)
(10.045 0.049054 0)
(10.0547 0.0513948 0)
(10.0637 0.0523837 0)
(10.0713 0.0526271 0)
(10.0778 0.0525073 0)
(10.0833 0.0521638 0)
(10.0881 0.0516754 0)
(10.0923 0.051134 0)
(10.0959 0.0505805 0)
(10.0991 0.050078 0)
(10.1019 0.0496222 0)
(10.1045 0.049322 0)
(10.1072 0.0490253 0)
(10.11 0.0487242 0)
(10.0005 0.0089466 0)
(10.0071 0.0270901 0)
(10.0191 0.0364221 0)
(10.0301 0.0414039 0)
(10.0396 0.0454328 0)
(10.0486 0.0481046 0)
(10.0572 0.0493821 0)
(10.0649 0.0498628 0)
(10.0716 0.0499509 0)
(10.0777 0.0497941 0)
(10.0832 0.0494732 0)
(10.0882 0.0490691 0)
(10.0928 0.0486301 0)
(10.097 0.0482011 0)
(10.101 0.0477879 0)
(10.1049 0.0474285 0)
(10.1087 0.0470316 0)
(10.1126 0.0464991 0)
(10.0004 0.00791821 0)
(10.006 0.0233849 0)
(10.0161 0.032746 0)
(10.0263 0.038117 0)
(10.0351 0.0421178 0)
(10.0436 0.0448079 0)
(10.0517 0.0462277 0)
(10.0591 0.0468728 0)
(10.0659 0.04711 0)
(10.072 0.0470859 0)
(10.0778 0.0468819 0)
(10.0831 0.046571 0)
(10.088 0.046203 0)
(10.0927 0.0458111 0)
(10.0972 0.0454023 0)
(10.1016 0.0449794 0)
(10.1059 0.0444782 0)
(10.1102 0.0437995 0)
(10.0004 0.00696296 0)
(10.0051 0.0204338 0)
(10.0137 0.029466 0)
(10.0229 0.0348793 0)
(10.0312 0.0387365 0)
(10.0391 0.0414056 0)
(10.0468 0.0429469 0)
(10.054 0.0437323 0)
(10.0606 0.0440871 0)
(10.0667 0.044163 0)
(10.0724 0.0440432 0)
(10.0778 0.0437957 0)
(10.0829 0.0434686 0)
(10.0878 0.0430888 0)
(10.0924 0.0426613 0)
(10.097 0.0421757 0)
(10.1015 0.0415823 0)
(10.1059 0.0408084 0)
(10.0004 0.00613253 0)
(10.0043 0.0178695 0)
(10.0116 0.02629 0)
(10.0199 0.0316019 0)
(10.0276 0.0353336 0)
(10.0351 0.0379676 0)
(10.0424 0.0395889 0)
(10.0492 0.0404779 0)
(10.0557 0.04092 0)
(10.0617 0.0410694 0)
(10.0673 0.04101 0)
(10.0727 0.0408051 0)
(10.0778 0.0404996 0)
(10.0827 0.0401174 0)
(10.0874 0.0396622 0)
(10.092 0.039121 0)
(10.0965 0.0384561 0)
(10.1009 0.037624 0)
(10.0003 0.00537294 0)
(10.0037 0.0155611 0)
(10.0099 0.0232535 0)
(10.0173 0.0283683 0)
(10.0245 0.0319583 0)
(10.0315 0.0345161 0)
(10.0383 0.0361629 0)
(10.0449 0.0371162 0)
(10.0511 0.037619 0)
(10.057 0.0378205 0)
(10.0625 0.0378037 0)
(10.0678 0.0376268 0)
(10.0729 0.0373317 0)
(10.0777 0.0369406 0)
(10.0824 0.0364579 0)
(10.0869 0.0358731 0)
(10.0913 0.0351597 0)
(10.0956 0.0342979 0)
(10.0003 0.00470806 0)
(10.0032 0.0136208 0)
(10.0086 0.0206084 0)
(10.0152 0.0254584 0)
(10.0219 0.0288828 0)
(10.0285 0.0313354 0)
(10.035 0.0329632 0)
(10.0413 0.033943 0)
(10.0473 0.034479 0)
(10.053 0.0347109 0)
(10.0584 0.0347188 0)
(10.0636 0.0345576 0)
(10.0686 0.0342658 0)
(10.0734 0.0338649 0)
(10.078 0.0333612 0)
(10.0824 0.0327484 0)
(10.0867 0.0320094 0)
(10.0909 0.0311417 0)
(10.0003 0.00409349 0)
(10.0028 0.011852 0)
(10.0075 0.01811 0)
(10.0134 0.0226187 0)
(10.0196 0.0258429 0)
(10.0259 0.0281646 0)
(10.032 0.0297406 0)
(10.038 0.0307194 0)
(10.0438 0.0312699 0)
(10.0494 0.0315181 0)
(10.0547 0.0315406 0)
(10.0597 0.0313885 0)
(10.0646 0.0310976 0)
(10.0693 0.0306891 0)
(10.0738 0.0301712 0)
(10.0781 0.0295429 0)
(10.0823 0.0287936 0)
(10.0863 0.0279354 0)
(10.0002 0.00345868 0)
(10.0024 0.0100138 0)
(10.0064 0.0154302 0)
(10.0117 0.0194728 0)
(10.0174 0.0224131 0)
(10.0232 0.0245439 0)
(10.029 0.0260172 0)
(10.0347 0.0269568 0)
(10.0402 0.0274964 0)
(10.0456 0.0277437 0)
(10.0507 0.0277691 0)
(10.0556 0.0276193 0)
(10.0604 0.0273268 0)
(10.0649 0.0269128 0)
(10.0693 0.0263871 0)
(10.0735 0.0257543 0)
(10.0775 0.0250101 0)
(10.0814 0.0241766 0)
(10.0002 0.00279955 0)
(10.002 0.00810466 0)
(10.0055 0.0125792 0)
(10.0101 0.0160258 0)
(10.0153 0.01858 0)
(10.0206 0.0204442 0)
(10.026 0.0217503 0)
(10.0314 0.0225986 0)
(10.0367 0.02309 0)
(10.0418 0.0233107 0)
(10.0467 0.0233216 0)
(10.0515 0.0231639 0)
(10.0561 0.0228667 0)
(10.0605 0.0224497 0)
(10.0647 0.0219256 0)
(10.0688 0.0213018 0)
(10.0726 0.0205808 0)
(10.0763 0.0197888 0)
(10.0002 0.00211538 0)
(10.0017 0.00612646 0)
(10.0047 0.00956514 0)
(10.0087 0.0122819 0)
(10.0134 0.0143306 0)
(10.0183 0.0158353 0)
(10.0233 0.0168948 0)
(10.0283 0.0175851 0)
(10.0333 0.0179778 0)
(10.0382 0.0181361 0)
(10.0429 0.0181084 0)
(10.0475 0.0179286 0)
(10.0519 0.0176213 0)
(10.0561 0.0172045 0)
(10.0602 0.0166911 0)
(10.0641 0.0160913 0)
(10.0678 0.0154102 0)
(10.0713 0.0146768 0)
(10.0002 0.00140315 0)
(10.0015 0.004065 0)
(10.0041 0.00637148 0)
(10.0076 0.0082237 0)
(10.0118 0.0096358 0)
(10.0163 0.010672 0)
(10.0209 0.0113931 0)
(10.0256 0.0118478 0)
(10.0304 0.0120809 0)
(10.035 0.0121333 0)
(10.0395 0.0120373 0)
(10.0439 0.0118179 0)
(10.0481 0.0114932 0)
(10.0522 0.0110782 0)
(10.056 0.0105837 0)
(10.0598 0.0100206 0)
(10.0633 0.00939372 0)
(10.0667 0.00873176 0)
(10.0001 0.000646329 0)
(10.0013 0.00186818 0)
(10.0036 0.00292542 0)
(10.0069 0.00377025 0)
(10.0107 0.0044038 0)
(10.0148 0.00484838 0)
(10.0192 0.00512687 0)
(10.0237 0.00525909 0)
(10.0281 0.00526419 0)
(10.0325 0.00516022 0)
(10.0369 0.00496239 0)
(10.041 0.00468303 0)
(10.0451 0.00433214 0)
(10.049 0.00391852 0)
(10.0527 0.00344969 0)
(10.0563 0.0029333 0)
(10.0596 0.0023736 0)
(10.0629 0.00179419 0)
(10.0001 -0.000198315 0)
(10.0012 -0.000586594 0)
(10.0034 -0.000946942 0)
(10.0066 -0.00127154 0)
(10.0102 -0.0015594 0)
(10.0143 -0.00182444 0)
(10.0185 -0.00208484 0)
(10.0228 -0.00235243 0)
(10.0271 -0.00263508 0)
(10.0314 -0.00293811 0)
(10.0356 -0.00326647 0)
(10.0396 -0.00362229 0)
(10.0435 -0.00400687 0)
(10.0473 -0.00441928 0)
(10.0509 -0.00485858 0)
(10.0543 -0.00532171 0)
(10.0576 -0.005808 0)
(10.0607 -0.0063002 0)
(10.0001 -0.00100657 0)
(10.0013 -0.00294273 0)
(10.0037 -0.0046703 0)
(10.007 -0.00611005 0)
(10.0108 -0.0072583 0)
(10.015 -0.00817522 0)
(10.0193 -0.00892197 0)
(10.0237 -0.00954101 0)
(10.0281 -0.0100662 0)
(10.0324 -0.0105297 0)
(10.0365 -0.0109558 0)
(10.0405 -0.0113619 0)
(10.0444 -0.0117585 0)
(10.0481 -0.0121539 0)
(10.0516 -0.0125522 0)
(10.055 -0.0129566 0)
(10.0582 -0.0133684 0)
(10.0612 -0.0137779 0)
(10.0002 -0.00170366 0)
(10.0015 -0.00500068 0)
(10.0041 -0.00792474 0)
(10.0078 -0.0102737 0)
(10.012 -0.0120684 0)
(10.0165 -0.0134594 0)
(10.021 -0.0145526 0)
(10.0256 -0.0154054 0)
(10.0301 -0.0160743 0)
(10.0344 -0.0166184 0)
(10.0386 -0.0170816 0)
(10.0427 -0.0174933 0)
(10.0465 -0.0178719 0)
(10.0502 -0.0182321 0)
(10.0537 -0.0185822 0)
(10.0571 -0.0189285 0)
(10.0603 -0.0192744 0)
(10.0633 -0.0196135 0)
(10.0002 -0.00236546 0)
(10.0016 -0.0070337 0)
(10.0047 -0.0111768 0)
(10.009 -0.0143453 0)
(10.0137 -0.01664 0)
(10.0185 -0.0183718 0)
(10.0234 -0.019701 0)
(10.0282 -0.0206981 0)
(10.0329 -0.021445 0)
(10.0374 -0.0220224 0)
(10.0417 -0.0224875 0)
(10.0458 -0.0228762 0)
(10.0497 -0.0232158 0)
(10.0534 -0.0235249 0)
(10.0569 -0.0238176 0)
(10.0602 -0.0241004 0)
(10.0634 -0.0243801 0)
(10.0664 -0.0246506 0)
(10.0002 -0.00298425 0)
(10.0018 -0.00909254 0)
(10.0054 -0.0144518 0)
(10.0105 -0.018341 0)
(10.0159 -0.0210839 0)
(10.0211 -0.0231049 0)
(10.0263 -0.0245592 0)
(10.0314 -0.0255721 0)
(10.0363 -0.0262979 0)
(10.0409 -0.0268464 0)
(10.0453 -0.0272742 0)
(10.0495 -0.0276169 0)
(10.0535 -0.0279039 0)
(10.0572 -0.0281576 0)
(10.0607 -0.0283922 0)
(10.064 -0.028616 0)
(10.0672 -0.0288344 0)
(10.0702 -0.0290452 0)
(10.0001 -0.00352788 0)
(10.0018 -0.0115508 0)
(10.0063 -0.0178925 0)
(10.0123 -0.0219896 0)
(10.0183 -0.0250547 0)
(10.0241 -0.0274628 0)
(10.0297 -0.0290999 0)
(10.0351 -0.0301092 0)
(10.0402 -0.030761 0)
(10.0449 -0.0312202 0)
(10.0494 -0.0315542 0)
(10.0537 -0.031804 0)
(10.0577 -0.0320029 0)
(10.0614 -0.0321754 0)
(10.065 -0.0323342 0)
(10.0683 -0.0324875 0)
(10.0714 -0.0326378 0)
(10.0743 -0.0327831 0)
(9.99991 -0.0033712 0)
(10.0016 -0.0149855 0)
(10.0073 -0.0227372 0)
(10.0142 -0.0262444 0)
(10.0206 -0.0288279 0)
(10.0269 -0.0311918 0)
(10.0331 -0.032912 0)
(10.039 -0.0339996 0)
(10.0445 -0.034699 0)
(10.0494 -0.0351626 0)
(10.0541 -0.0354608 0)
(10.0584 -0.0356479 0)
(10.0624 -0.0357699 0)
(10.0661 -0.0358574 0)
(10.0695 -0.0359288 0)
(10.0727 -0.0359937 0)
(10.0756 -0.0360571 0)
(10.0783 -0.0361177 0)
(9.99859 -0.000378137 0)
(9.99903 -0.0157995 0)
(10.0076 -0.0274346 0)
(10.0166 -0.0324893 0)
(10.0238 -0.0348643 0)
(10.0306 -0.0362197 0)
(10.0376 -0.0369714 0)
(10.0441 -0.0374385 0)
(10.0499 -0.0377876 0)
(10.055 -0.0380349 0)
(10.0596 -0.0381802 0)
(10.0636 -0.038249 0)
(10.0672 -0.0382706 0)
(10.0704 -0.0382662 0)
(10.0732 -0.0382514 0)
(10.0756 -0.0382342 0)
(10.0777 -0.0382188 0)
(10.0796 -0.0382029 0)
(9.99487 0.00141547 0)
(9.99287 -0.00812389 0)
(10.006 -0.0203256 0)
(10.0202 -0.0322579 0)
(10.0307 -0.0404653 0)
(10.0392 -0.0441395 0)
(10.0467 -0.0450535 0)
(10.0529 -0.0449108 0)
(10.0578 -0.0444451 0)
(10.0617 -0.0438496 0)
(10.0646 -0.0432058 0)
(10.0668 -0.0425701 0)
(10.0683 -0.0419765 0)
(10.0691 -0.041433 0)
(10.0694 -0.0409497 0)
(10.0693 -0.0405229 0)
(10.0688 -0.0401499 0)
(10.0681 -0.0398057 0)
(9.9947 -0.0305763 0)
(9.99946 -0.0228462 0)
(10.0146 -0.00261995 0)
(10.0304 -0.00190017 0)
(10.0434 -0.0116522 0)
(10.0533 -0.0209176 0)
(10.0594 -0.0272762 0)
(10.0619 -0.0315036 0)
(10.0615 -0.0342787 0)
(10.0591 -0.0359752 0)
(10.0551 -0.0369078 0)
(10.0498 -0.0373416 0)
(10.0435 -0.0374677 0)
(10.0365 -0.0374055 0)
(10.0289 -0.0372455 0)
(10.021 -0.037043 0)
(10.0129 -0.036863 0)
(10.0047 -0.0366746 0)
(10.0274 -0.183084 0)
(10.0766 -0.288335 0)
(10.0871 -0.247831 0)
(10.0777 -0.186564 0)
(10.0663 -0.140323 0)
(10.0537 -0.10824 0)
(10.0365 -0.0858918 0)
(10.0145 -0.0704322 0)
(9.98938 -0.05966 0)
(9.96235 -0.0518831 0)
(9.93438 -0.04606 0)
(9.90606 -0.0415617 0)
(9.87789 -0.0380053 0)
(9.85019 -0.0351301 0)
(9.82321 -0.0327636 0)
(9.79704 -0.0308427 0)
(9.77195 -0.0293267 0)
(9.74796 -0.0285079 0)
(9.93574 0.689652 0)
(9.86822 0.609624 0)
(9.76459 0.380622 0)
(9.62662 0.217421 0)
(9.4859 0.119248 0)
(9.35721 0.0631636 0)
(9.2427 0.0315507 0)
(9.14113 0.0135989 0)
(9.05148 0.00324525 0)
(8.9725 -0.00281542 0)
(8.90261 -0.00636892 0)
(8.84044 -0.00848638 0)
(8.78474 -0.00973564 0)
(8.73464 -0.0104805 0)
(8.68921 -0.0109825 0)
(8.64787 -0.011251 0)
(8.60968 -0.0114575 0)
(8.57434 -0.0121179 0)
(0.00685495 -0.0159745 -8.3846e-19)
(0.0202746 -0.0196561 6.59998e-19)
(0.0291487 -0.0128975 0)
(0.0325262 -0.00338439 0)
(0.0296909 0.00526895 0)
(0.0218992 0.0117256 -2.99715e-19)
(0.0104123 0.0159843 0)
(-0.00371493 0.0185375 0)
(-0.0196883 0.0199772 0)
(-0.0370233 0.0207915 0)
(-0.0553912 0.0212991 1.6358e-19)
(-0.0745949 0.0216686 0)
(-0.0945196 0.0219852 0)
(-0.1151 0.0222738 0)
(-0.136295 0.0225353 0)
(-0.158074 0.0227445 1.07159e-19)
(-0.180406 0.0228708 0)
(-0.203268 0.0228731 0)
(-0.226659 0.0227325 0)
(-0.250622 0.0224761 0)
(-0.27525 0.0222368 0)
(-0.30066 0.0221167 0)
(-0.326924 0.0219943 0)
(-0.353804 0.0227174 7.47914e-20)
(-0.380968 0.0241269 -7.12084e-20)
(-0.408335 0.0250581 6.78159e-20)
(-0.435613 0.0275408 6.50355e-20)
(-0.463039 0.0342472 0)
(-0.492061 0.0424695 0)
(-0.523194 0.0505383 -6.24559e-20)
(-0.556256 0.05986 -6.27832e-20)
(-0.59165 0.0663948 0)
(-0.629249 0.070921 0)
(-0.666753 0.086483 -6.88737e-20)
(-0.707466 0.0648773 0)
(-0.747579 0.0224397 0)
(-0.777694 0.0261258 8.37776e-20)
(-0.812555 0.0327173 0)
(-0.85043 0.035443 7.81115e-20)
(-0.889619 0.0350166 1.50952e-19)
(-0.928579 0.0351554 0)
(-0.967978 0.0352184 0)
(-1.00755 0.035173 0)
(-1.04722 0.0350226 0)
(-1.08693 0.0348193 0)
(-1.12662 0.0345729 1.25846e-19)
(-1.16627 0.0343076 1.22534e-19)
(-1.20586 0.0340224 1.19418e-19)
(-1.24537 0.0337307 0)
(-1.28479 0.0334274 -1.1371e-19)
(-1.32411 0.0331224 0)
(-1.36331 0.032808 1.08607e-19)
(-1.40239 0.0324919 1.06252e-19)
(-1.44133 0.0321664 0)
(-1.48012 0.0318378 0)
(-1.51873 0.0314966 0)
(-1.55716 0.031149 9.79146e-20)
(-1.59538 0.0307866 0)
(-1.63338 0.0304149 0)
(-1.67112 0.0300245 0)
(-1.70858 0.0296215 0)
(-1.74574 0.0291978 0)
(-1.78256 0.0287587 0)
(-1.81902 0.0282957 0)
(-1.85507 0.0278146 0)
(-1.89069 0.0273075 -8.366e-20)
(-1.92583 0.0267804 0)
(-1.96047 0.026226 0)
(-1.99455 0.0256503 7.98409e-20)
(-2.02804 0.0250464 7.86415e-20)
(-2.06089 0.0244201 0)
(-2.09306 0.0237648 -7.63363e-20)
(-2.12451 0.0230864 7.52254e-20)
(-2.15519 0.0223784 0)
(-2.18505 0.0216468 -7.3075e-20)
(-2.21405 0.0208856 0)
(-2.24213 0.0201005 0)
(-2.26926 0.0192867 6.99939e-20)
(-2.29537 0.0184484 0)
(-2.32041 0.0175798 -6.80111e-20)
(-2.34434 0.0166847 0)
(-2.3671 0.0157574 6.60665e-20)
(-2.38865 0.0147996 6.51038e-20)
(-2.40892 0.0138035 6.41451e-20)
(-2.42787 0.0127688 1.26377e-19)
(-2.44543 0.0116864 -1.24465e-19)
(-2.46154 0.0105525 0)
(-2.47613 0.00935636 0)
(-2.48913 0.00809368 0)
(-2.50045 0.00676063 -1.16763e-19)
(-2.51001 0.00536506 -1.14816e-19)
(-2.51774 0.00393624 1.12861e-19)
(-2.52351 0.00252768 0)
(-2.52718 0.00118935 -1.08912e-19)
(-2.52868 -3.40784e-06 -1.06843e-19)
(-2.52854 -0.00108213 -1.04734e-19)
(-2.52667 -0.00214005 0)
(-2.52311 -0.00319214 0)
(-2.51783 -0.00424564 0)
(-2.51084 -0.00530018 -9.57837e-20)
(-2.50212 -0.00635444 0)
(-2.49166 -0.00740764 0)
(-2.47945 -0.00845834 8.84186e-20)
(-2.46548 -0.00950469 0)
(-2.44975 -0.0105454 0)
(-2.43228 -0.0115778 8.03844e-20)
(-2.41307 -0.0126009 0)
(-2.39213 -0.013611 0)
(-2.36949 -0.0146073 -7.15862e-20)
(-2.34516 -0.0155852 -6.84682e-20)
(-2.31918 -0.0165446 0)
(-2.29157 -0.0174798 6.19357e-20)
(-2.26238 -0.0183914 0)
(-2.23164 -0.0192733 -5.49892e-20)
(-2.19941 -0.0201268 0)
(-2.16572 -0.0209449 -4.76087e-20)
(-2.13065 -0.0217293 -4.37505e-20)
(-2.09424 -0.0224728 0)
(-2.05657 -0.0231781 0)
(-2.01769 -0.0238391 0)
(-1.97768 -0.0244585 0)
(-1.93659 -0.025031 0)
(-1.8945 -0.0255627 0)
(-1.8515 -0.0260496 0)
(-1.80766 -0.0264941 -8.6566e-21)
(-1.76308 -0.0268829 3.7306e-21)
(-1.71785 -0.0272222 0)
(-1.67204 -0.027507 0)
(-1.62574 -0.0277412 0)
(-1.57903 -0.0279165 0)
(-1.53201 -0.0280368 -4.54449e-20)
(-1.48475 -0.0280969 0)
(-1.43735 -0.0280993 6.83005e-20)
(-1.38989 -0.0280422 -8.00853e-20)
(-1.34245 -0.0279267 0)
(-1.29511 -0.027755 0)
(-1.24794 -0.0275244 0)
(-1.201 -0.0272383 1.29542e-19)
(-1.15432 -0.0268917 1.4247e-19)
(-1.10798 -0.0264972 0)
(-1.06204 -0.026057 1.68963e-19)
(-1.01658 -0.0255857 1.82512e-19)
(-0.971641 -0.0250828 -1.96257e-19)
(-0.927256 -0.0245553 0)
(-0.883439 -0.0239996 0)
(-0.840204 -0.0234258 -2.38666e-19)
(-0.797556 -0.0228322 0)
(-0.75549 -0.022232 0)
(-0.713989 -0.0216233 0)
(-0.673027 -0.0210189 0)
(-0.632568 -0.0204169 3.13482e-19)
(-0.592566 -0.0198346 3.29174e-19)
(-0.552961 -0.0192735 0)
(-0.513686 -0.0187471 3.61492e-19)
(-0.474664 -0.0182557 0)
(-0.435807 -0.0178191 0)
(-0.397014 -0.0174392 4.13088e-19)
(-0.358174 -0.0171315 0)
(-0.319169 -0.0169058 4.50493e-19)
(-0.279857 -0.0167828 0)
(-0.240105 -0.0167612 0)
(-0.199758 -0.0168687 5.13776e-19)
(-0.158617 -0.0171369 0)
(-0.116531 -0.0176072 5.63279e-19)
(-0.0734326 -0.0182665 0)
(-0.0291542 -0.0190166 0)
(0.015965 -0.0195468 0)
(0.0615654 -0.0197301 -6.3757e-19)
(0.108607 -0.0199661 0)
(0.157952 -0.0204752 6.06023e-19)
(0.209891 -0.0211919 0)
(0.264737 -0.0220545 0)
(0.322717 -0.0230131 0)
(0.383873 -0.0239924 0)
(0.448157 -0.0249016 0)
(0.515022 -0.0256057 0)
(0.584349 -0.0258072 0)
(0.650647 -0.0248477 -1.02175e-18)
(0.722175 -0.0210244 0)
(0.736034 -0.00115415 0)
(0.00444671 -0.0407121 1.88747e-18)
(0.00804865 -0.0309167 -1.02924e-18)
(0.00556181 -0.0131914 0)
(-5.55698e-05 0.00380573 3.11711e-19)
(-0.00825233 0.0185552 0)
(-0.0190059 0.0304451 1.1576e-19)
(-0.0321574 0.0394831 -2.10049e-19)
(-0.0475211 0.0460767 -1.92961e-19)
(-0.0648283 0.0508033 0)
(-0.08379 0.054219 -1.66066e-19)
(-0.10415 0.0567709 -7.76717e-20)
(-0.125711 0.058772 0)
(-0.148329 0.0604307 0)
(-0.171914 0.0618717 0)
(-0.196415 0.0631739 0)
(-0.221814 0.0643809 -5.97326e-20)
(-0.248115 0.0655259 0)
(-0.27534 0.0666313 1.109e-19)
(-0.303522 0.0677269 0)
(-0.332699 0.0688483 0)
(-0.362876 0.0700538 -1.0144e-19)
(-0.394039 0.0714008 0)
(-0.426207 0.0728923 9.6193e-20)
(-0.459354 0.0744499 -4.68273e-20)
(-0.493583 0.0759151 4.56254e-20)
(-0.529234 0.0770493 -4.45256e-20)
(-0.566527 0.0781105 -4.36268e-20)
(-0.605253 0.0796119 0)
(-0.644882 0.0814726 0)
(-0.685112 0.0830775 4.27762e-20)
(-0.725543 0.0841409 -4.24471e-20)
(-0.766024 0.084638 0)
(-0.806214 0.0850462 0)
(-0.844781 0.0861411 4.40993e-20)
(-0.884254 0.0874531 0)
(-0.925346 0.0879952 0)
(-0.967869 0.0895237 -4.17679e-20)
(-1.00803 0.0907908 0)
(-1.04669 0.091515 3.94653e-20)
(-1.08458 0.0915113 -7.73813e-20)
(-1.12208 0.0911076 0)
(-1.15925 0.0905231 0)
(-1.19611 0.0898073 -1.44177e-19)
(-1.23271 0.088995 -1.41113e-19)
(-1.26906 0.0881194 -1.38202e-19)
(-1.30517 0.0871963 6.75572e-20)
(-1.34106 0.0862462 -6.65598e-20)
(-1.37672 0.0852723 -1.9559e-19)
(-1.41216 0.0842865 1.27886e-19)
(-1.44737 0.0832849 6.29537e-20)
(-1.48235 0.0822751 0)
(-1.51708 0.0812498 -6.07976e-20)
(-1.55157 0.0802141 5.94703e-20)
(-1.58579 0.0791599 0)
(-1.61973 0.0780903 0)
(-1.65338 0.0769954 0)
(-1.68672 0.0758786 -5.60815e-20)
(-1.71973 0.0747308 0)
(-1.75239 0.0735547 1.08523e-19)
(-1.78467 0.0723408 0)
(-1.81656 0.0710929 1.05384e-19)
(-1.84802 0.0698024 0)
(-1.87902 0.0684729 -1.02414e-19)
(-1.90955 0.0670957 0)
(-1.93956 0.0656751 9.95884e-20)
(-1.96903 0.0642031 -4.89785e-20)
(-1.99792 0.0626848 0)
(-2.02621 0.0611131 -9.55731e-20)
(-2.05385 0.0594936 -4.72656e-20)
(-2.08081 0.0578196 -4.6628e-20)
(-2.10707 0.0560968 0)
(-2.13257 0.0543192 -4.51528e-20)
(-2.15728 0.0524924 -4.47647e-20)
(-2.18117 0.0506107 0)
(-2.20419 0.0486803 4.35535e-20)
(-2.22631 0.0466962 -8.57168e-20)
(-2.2475 0.044665 0)
(-2.2677 0.0425829 -4.17628e-20)
(-2.28688 0.0404556 0)
(-2.305 0.0382786 1.21574e-19)
(-2.32202 0.0360575 0)
(-2.33789 0.0337889 -1.18021e-19)
(-2.35259 0.0314774 -3.87832e-20)
(-2.36607 0.0291188 3.80762e-20)
(-2.37829 0.0267174 7.49625e-20)
(-2.38922 0.0242692 -7.37627e-20)
(-2.39882 0.0217763 0)
(-2.40707 0.019233 0)
(-2.41393 0.0166373 0)
(-2.4194 0.0139822 2.06565e-19)
(-2.42349 0.0112628 6.75617e-20)
(-2.42623 0.00848892 -6.62441e-20)
(-2.42771 0.00570073 0)
(-2.42799 0.00296523 -6.36198e-20)
(-2.42716 0.000364513 6.2117e-20)
(-2.4248 -0.00212302 6.06743e-20)
(-2.42085 -0.00457019 0)
(-2.41526 -0.006992 0)
(-2.40802 -0.00939486 0)
(-2.3991 -0.0117786 5.46196e-20)
(-2.38848 -0.0141394 0)
(-2.37617 -0.0164729 -1.03179e-19)
(-2.36214 -0.0187741 -1.49659e-19)
(-2.34641 -0.0210381 9.6567e-20)
(-2.32896 -0.0232605 0)
(-2.30981 -0.0254361 4.50997e-20)
(-2.28897 -0.0275609 0)
(-2.26646 -0.029629 8.25003e-20)
(-2.24229 -0.0316366 -3.97224e-20)
(-2.21649 -0.0335774 -3.78567e-20)
(-2.18908 -0.0354481 0)
(-2.16011 -0.0372417 -1.00524e-19)
(-2.12961 -0.0389561 6.32791e-20)
(-2.09762 -0.0405839 2.91914e-20)
(-2.06419 -0.0421244 0)
(-2.02937 -0.0435703 2.49897e-20)
(-1.99323 -0.0449216 6.94569e-20)
(-1.95581 -0.0461718 0)
(-1.91719 -0.0473214 3.78934e-20)
(-1.87743 -0.0483639 3.34414e-20)
(-1.8366 -0.0493008 2.89334e-20)
(-1.79476 -0.0501294 0)
(-1.752 -0.0508618 0)
(-1.70839 -0.0514944 0)
(-1.66402 -0.0520191 -5.78704e-21)
(-1.61896 -0.052433 -2.27588e-21)
(-1.57331 -0.0527531 0)
(-1.52714 -0.0529685 3.81462e-21)
(-1.48054 -0.0530836 8.61033e-21)
(-1.43358 -0.0530938 0)
(-1.38635 -0.0530063 1.94465e-20)
(-1.33894 -0.0528178 4.61423e-20)
(-1.29142 -0.052535 -2.90989e-20)
(-1.24388 -0.0521581 -3.15248e-20)
(-1.19639 -0.051694 0)
(-1.14903 -0.0511472 0)
(-1.10186 -0.0505217 0)
(-1.05494 -0.04982 -5.29759e-20)
(-1.00831 -0.0490455 5.54135e-20)
(-0.962032 -0.0482089 1.22397e-19)
(-0.916156 -0.0473264 -6.68849e-20)
(-0.870743 -0.0464132 6.93118e-20)
(-0.825831 -0.0454844 7.58696e-20)
(-0.781441 -0.0445436 0)
(-0.737582 -0.0435997 0)
(-0.694256 -0.0426566 -8.69554e-20)
(-0.651458 -0.0417263 0)
(-0.609172 -0.0408145 0)
(-0.567372 -0.0399349 2.0028e-19)
(-0.526019 -0.0390919 0)
(-0.485066 -0.0382998 1.0711e-19)
(-0.444451 -0.0375641 -1.12217e-19)
(-0.404104 -0.0369015 0)
(-0.363939 -0.0363144 1.18014e-19)
(-0.323861 -0.0358181 0)
(-0.283762 -0.035419 0)
(-0.243517 -0.0351327 -1.28973e-19)
(-0.20299 -0.0349582 2.63206e-19)
(-0.162031 -0.0349172 -1.35052e-19)
(-0.120472 -0.0350178 0)
(-0.0781383 -0.035272 0)
(-0.0348452 -0.0356783 1.43133e-19)
(0.00954112 -0.0362176 0)
(0.0550549 -0.0368073 1.46639e-19)
(0.102026 -0.0374729 0)
(0.150898 -0.0382166 0)
(0.202081 -0.0390074 0)
(0.255922 -0.0399755 1.47157e-19)
(0.312516 -0.0412948 0)
(0.371901 -0.0429281 -1.4781e-19)
(0.434193 -0.0447685 0)
(0.499495 -0.0467265 0)
(0.567826 -0.0487141 2.98527e-19)
(0.639074 -0.0506073 -3.00512e-19)
(0.712999 -0.0522343 0)
(0.788945 -0.0533253 0)
(0.866364 -0.0532868 0)
(0.941481 -0.0511223 9.43085e-19)
(1.01855 -0.0431238 0)
(1.06541 -0.0175718 -6.66237e-19)
(-0.00248382 -0.0427157 -9.93326e-22)
(-0.00758958 -0.0190837 9.80535e-19)
(-0.0162971 0.0041818 0)
(-0.0271904 0.0247316 -3.91759e-19)
(-0.0395564 0.0425336 0)
(-0.0531627 0.0576055 0)
(-0.0681089 0.0700132 1.97922e-23)
(-0.0845239 0.0799761 1.21867e-19)
(-0.102449 0.0878596 1.14862e-19)
(-0.121844 0.0940961 1.08994e-19)
(-0.142623 0.0991071 0)
(-0.164683 0.103253 0)
(-0.187931 0.106818 -9.53213e-20)
(-0.212293 0.110009 -1.83498e-19)
(-0.237721 0.112978 1.77153e-19)
(-0.264187 0.115831 0)
(-0.291682 0.118644 1.66538e-19)
(-0.320208 0.121473 -8.10188e-20)
(-0.349777 0.124351 0)
(-0.380396 0.127293 1.54572e-19)
(-0.412054 0.130291 7.5583e-20)
(-0.444706 0.133301 -1.481e-19)
(-0.478252 0.13625 -7.24054e-20)
(-0.512559 0.139042 0)
(-0.547566 0.141598 1.38125e-19)
(-0.583312 0.143922 1.34799e-19)
(-0.619767 0.146296 0)
(-0.656625 0.149017 1.29046e-19)
(-0.693403 0.151884 0)
(-0.729806 0.154589 1.24873e-19)
(-0.765704 0.156881 6.17051e-20)
(-0.800976 0.158294 0)
(-0.835549 0.158765 0)
(-0.869393 0.158531 0)
(-0.903105 0.156099 0)
(-0.937544 0.152405 0)
(-0.972613 0.150202 0)
(-1.00722 0.148835 1.07548e-19)
(-1.04109 0.1475 -1.57799e-19)
(-1.07441 0.146007 0)
(-1.10743 0.144463 0)
(-1.14021 0.142884 0)
(-1.17277 0.141273 1.60028e-22)
(-1.20514 0.139633 9.50181e-20)
(-1.23734 0.137972 1.86309e-19)
(-1.26937 0.136295 -1.82899e-19)
(-1.30125 0.134607 -8.97309e-20)
(-1.33297 0.13291 8.83328e-20)
(-1.36454 0.131204 -1.72018e-22)
(-1.39596 0.129488 8.52055e-20)
(-1.4272 0.127759 0)
(-1.45827 0.126013 8.24611e-20)
(-1.48916 0.124248 -1.75766e-22)
(-1.51985 0.122458 0)
(-1.55033 0.120638 0)
(-1.58058 0.118782 -7.74972e-20)
(-1.61058 0.116887 0)
(-1.64031 0.114946 0)
(-1.66976 0.112957 7.3971e-20)
(-1.6989 0.110912 1.46166e-19)
(-1.72771 0.108811 -7.22169e-20)
(-1.75616 0.106648 0)
(-1.78422 0.104421 7.02103e-20)
(-1.81187 0.102125 0)
(-1.83908 0.099759 6.7964e-20)
(-1.86581 0.09732 6.73433e-20)
(-1.89204 0.0948078 -1.32533e-19)
(-1.91774 0.0922194 -6.52106e-20)
(-1.94287 0.0895558 0)
(-1.9674 0.0868146 1.27161e-19)
(-1.99129 0.0839975 0)
(-2.0145 0.0811025 1.8565e-19)
(-2.03701 0.0781318 1.21959e-19)
(-2.05877 0.075084 1.20251e-19)
(-2.07975 0.0719616 -1.18551e-19)
(-2.09991 0.0687643 1.75398e-19)
(-2.11921 0.0654955 0)
(-2.13761 0.0621552 0)
(-2.15508 0.0587465 -1.11793e-19)
(-2.17157 0.0552695 -1.65237e-19)
(-2.18705 0.0517276 0)
(-2.20147 0.0481214 5.34206e-20)
(-2.21481 0.0444542 0)
(-2.22702 0.040727 -1.54951e-19)
(-2.23807 0.0369442 -9.18102e-23)
(-2.24794 0.0331077 7.50187e-23)
(-2.25657 0.0292233 9.80038e-20)
(-2.26396 0.0252955 0)
(-2.27008 0.0213327 -9.44078e-20)
(-2.2749 0.0173454 -1.7851e-24)
(-2.27843 0.013349 0)
(-2.28067 0.00936575 0)
(-2.28157 0.0054172 0)
(-2.28111 0.00151201 8.48832e-20)
(-2.27922 -0.00237541 0)
(-2.27581 -0.00626024 0)
(-2.27086 -0.0101298 0)
(-2.26434 -0.0139772 0)
(-2.25621 -0.0177973 0)
(-2.24647 -0.0215836 7.23984e-20)
(-2.23509 -0.0253288 0)
(-2.22207 -0.0290249 6.76791e-20)
(-2.2074 -0.0326638 6.53714e-20)
(-2.19108 -0.0362377 -6.30266e-20)
(-2.17312 -0.0397382 0)
(-2.15351 -0.043158 -5.82251e-20)
(-2.13227 -0.0464886 0)
(-2.10942 -0.0497225 -5.32747e-20)
(-2.08497 -0.0528512 5.07444e-20)
(-2.05895 -0.0558672 1.45432e-19)
(-2.03139 -0.0587622 0)
(-2.00233 -0.0615292 1.29811e-19)
(-1.9718 -0.0641603 4.13035e-20)
(-1.93984 -0.0666494 0)
(-1.9065 -0.0689896 7.07989e-20)
(-1.87184 -0.0711757 6.53217e-20)
(-1.83591 -0.0732024 -8.90905e-20)
(-1.79877 -0.0750658 0)
(-1.76049 -0.0767614 -2.36623e-20)
(-1.72112 -0.0782853 -2.08133e-20)
(-1.68073 -0.0796348 -5.51604e-20)
(-1.6394 -0.0808097 0)
(-1.5972 -0.0818181 0)
(-1.5542 -0.0826706 0)
(-1.5105 -0.083355 -7.79218e-21)
(-1.46616 -0.0838645 0)
(-1.42126 -0.0842146 0)
(-1.37589 -0.0844052 -2.30944e-21)
(-1.33011 -0.0844354 -5.19439e-21)
(-1.28401 -0.0843061 0)
(-1.23766 -0.0840219 0)
(-1.19115 -0.0835851 -2.75404e-20)
(-1.14455 -0.0830028 0)
(-1.09794 -0.0822798 3.87803e-20)
(-1.05138 -0.0814258 4.28873e-20)
(-1.00494 -0.0804487 0)
(-0.958692 -0.0793572 0)
(-0.912675 -0.0781562 -5.91866e-20)
(-0.866935 -0.0768569 -1.35281e-21)
(-0.821519 -0.0754731 -1.3251e-21)
(-0.776474 -0.0740282 0)
(-0.731846 -0.072543 -1.60875e-19)
(-0.687664 -0.0710379 0)
(-0.643942 -0.0695227 0)
(-0.600684 -0.0680118 0)
(-0.557882 -0.0665137 9.98678e-20)
(-0.515525 -0.0650454 0)
(-0.473588 -0.0636173 -2.15024e-19)
(-0.432037 -0.0622485 -1.12661e-19)
(-0.390824 -0.0609479 0)
(-0.349894 -0.0597345 -1.20513e-19)
(-0.309177 -0.0586186 0)
(-0.268594 -0.0576221 0)
(-0.228052 -0.0567519 -3.9227e-19)
(-0.187443 -0.0560274 2.67723e-19)
(-0.146651 -0.0554601 0)
(-0.105543 -0.0550717 2.80296e-19)
(-0.0639717 -0.0548657 -1.43627e-19)
(-0.0217777 -0.0548623 0)
(0.0211794 -0.0550569 0)
(0.0650555 -0.0554535 0)
(0.110087 -0.0560596 -4.52664e-19)
(0.15652 -0.056884 0)
(0.204599 -0.057941 -1.52735e-19)
(0.254581 -0.0592641 0)
(0.306721 -0.0608145 0)
(0.361325 -0.0625877 0)
(0.418676 -0.0646495 0)
(0.478902 -0.0670586 0)
(0.542047 -0.069774 0)
(0.608159 -0.0727035 -3.17412e-19)
(0.677259 -0.075736 0)
(0.749294 -0.0787417 -1.62438e-19)
(0.824096 -0.081546 4.91788e-19)
(0.901365 -0.0838945 0)
(0.980464 -0.0853893 0)
(1.06083 -0.085258 -3.42379e-19)
(1.13974 -0.0821657 -3.50936e-19)
(1.22079 -0.0723709 3.58085e-19)
(1.28513 -0.0468412 3.72931e-19)
(-0.00851043 -0.0265147 -2.86347e-18)
(-0.0191727 0.0049195 -1.17169e-18)
(-0.0318197 0.0308714 -4.23223e-19)
(-0.0464254 0.0530987 -1.51896e-19)
(-0.0619206 0.0724424 0)
(-0.077996 0.0892331 2.20091e-19)
(-0.0948036 0.103628 -1.00602e-19)
(-0.112541 0.115796 0)
(-0.131346 0.125984 -8.89534e-20)
(-0.151292 0.134503 0)
(-0.172401 0.141692 1.62788e-19)
(-0.194655 0.14787 0)
(-0.21802 0.153318 7.56373e-20)
(-0.242448 0.158261 1.46429e-19)
(-0.267894 0.162875 -1.42067e-19)
(-0.294317 0.167285 0)
(-0.321675 0.171579 -1.3456e-19)
(-0.349928 0.175807 0)
(-0.379031 0.179989 0)
(-0.40893 0.184115 -1.25511e-19)
(-0.43955 0.188141 0)
(-0.470788 0.191992 -5.27495e-23)
(-0.502508 0.195569 0)
(-0.534559 0.198774 0)
(-0.566817 0.201538 -6.70032e-24)
(-0.599191 0.203866 -1.09229e-19)
(-0.631576 0.20587 -1.06511e-19)
(-0.663792 0.207662 -1.03949e-19)
(-0.695639 0.2092 0)
(-0.727009 0.210363 -1.98634e-19)
(-0.757871 0.211012 0)
(-0.788271 0.211002 -9.51556e-20)
(-0.818307 0.210274 0)
(-0.848083 0.208806 0)
(-0.87782 0.206419 8.91532e-20)
(-0.907816 0.203532 0)
(-0.938025 0.200906 -8.51769e-20)
(-0.968134 0.198568 -6.82842e-23)
(-0.997992 0.196319 1.63267e-19)
(-1.02763 0.19406 -1.59877e-19)
(-1.05711 0.191801 0)
(-1.08645 0.189547 0)
(-1.11568 0.1873 -7.53184e-20)
(-1.1448 0.185057 0)
(-1.17383 0.182816 -7.27237e-20)
(-1.20276 0.180576 7.14471e-20)
(-1.2316 0.178336 7.02203e-20)
(-1.26035 0.176091 0)
(-1.28899 0.173838 -6.79031e-20)
(-1.31754 0.171571 -6.68063e-20)
(-1.34597 0.169286 1.3134e-19)
(-1.37428 0.166977 -6.47219e-20)
(-1.40245 0.164636 -6.3729e-20)
(-1.43047 0.162258 0)
(-1.45833 0.159835 0)
(-1.486 0.157361 6.09221e-20)