/*--------------------------------*- C++ -*----------------------------------*\
  =========                 |
  \\      /  F ield         | OpenFOAM: The Open Source CFD Toolbox
   \\    /   O peration     | Website:  https://openfoam.org
    \\  /    A nd           | Version:  12
     \\/     M anipulation  |
\*---------------------------------------------------------------------------*/
FoamFile
{
    format      ascii;
    class       volScalarField;
    location    "10";
    object      epsilon;
}
// * * * * * * * * * * * * * * * * * * * * * * * * * * * * * * * * * * * * * //

dimensions      [0 2 -3 0 0 0 0];

internalField   nonuniform List<scalar> 
1600
(
3.21938e-05
0.000105314
0.000200441
0.000198015
0.000179948
0.000184274
0.000239059
0.000407852
0.000612335
0.000904836
0.00136326
0.00167725
0.00184571
0.00206775
0.00240271
0.00282032
0.0031985
0.00363599
0.00405168
0.00453397
0.00502048
0.00558346
0.00618654
0.00689638
0.00770819
0.00841931
0.00914959
0.00976449
0.010299
0.0105833
0.0106954
0.0104697
0.00964325
0.00823469
0.00622867
0.00374714
0.00184795
0.000787281
0.000254407
5.3437e-05
0.000154796
0.00019199
0.000230132
0.00021786
0.000209106
0.00025043
0.000443052
0.000955796
0.00170598
0.0028451
0.00485229
0.00571812
0.00576991
0.00538415
0.00504787
0.00490317
0.00476729
0.00472706
0.00471969
0.00482652
0.00496542
0.00518445
0.00541973
0.00572387
0.0060915
0.00653881
0.00703826
0.00761097
0.00817378
0.00864146
0.00885841
0.00889487
0.00830279
0.00721807
0.00540279
0.00316322
0.00134826
0.000596636
0.000218583
8.89667e-05
0.000465402
0.000485666
0.000483506
0.000454929
0.000512592
0.000857128
0.00187804
0.00384791
0.00606756
0.00694096
0.00666843
0.00568975
0.00520992
0.00458823
0.00418783
0.0038648
0.00361424
0.00344892
0.00334897
0.00330575
0.00329303
0.00333548
0.00344617
0.00360121
0.00379806
0.00404011
0.00433015
0.00468031
0.00509497
0.0056008
0.0061607
0.00668439
0.00692233
0.00685072
0.00598453
0.0040848
0.00133318
0.000373579
0.000136663
7.28675e-05
0.00105616
0.000937366
0.000915278
0.000974288
0.00142535
0.00277809
0.00521894
0.0068595
0.00721422
0.00651298
0.00554118
0.00436067
0.00366946
0.0031492
0.00287752
0.00262353
0.00249228
0.00240675
0.00237029
0.00236067
0.00238609
0.00244514
0.00252524
0.00263181
0.00276024
0.00291807
0.00310759
0.0033366
0.00361053
0.00393817
0.00432452
0.00478979
0.00541868
0.00603026
0.00626626
0.00579467
0.00298258
0.000514562
0.000109062
5.00637e-05
0.00196855
0.00157997
0.00165724
0.0020768
0.00330311
0.00543516
0.0067653
0.00700385
0.00638527
0.00478039
0.00362581
0.0029899
0.00255641
0.00227704
0.00211025
0.00200014
0.00195191
0.00193425
0.00193346
0.00196685
0.0020088
0.00206739
0.002136
0.00222159
0.0023235
0.00244908
0.00260334
0.00279325
0.00302169
0.0032926
0.00360899
0.00397356
0.00440939
0.00499275
0.00585613
0.00624321
0.00558764
0.0015938
0.000201163
5.6846e-05
0.00326016
0.00248761
0.00278525
0.00363035
0.00523473
0.00641244
0.00668057
0.00615793
0.00436508
0.00316281
0.00256413
0.00217683
0.00193468
0.00179573
0.00172548
0.0016942
0.0016858
0.00169233
0.00171727
0.00175024
0.00179169
0.00184336
0.00190696
0.0019862
0.00208361
0.00220464
0.00235367
0.00253598
0.0027561
0.003017
0.00331963
0.00366927
0.00405071
0.00448514
0.0050515
0.00582029
0.00614178
0.00428677
0.000609546
0.000104586
0.00485931
0.00364547
0.0041238
0.00509759
0.00605391
0.0063285
0.00594695
0.0042664
0.0029244
0.00228808
0.00194362
0.00171495
0.00159744
0.00153609
0.0015075
0.00149564
0.00149226
0.00149485
0.00150692
0.00152325
0.00154936
0.00158712
0.00164037
0.00171286
0.00180928
0.00193518
0.00209611
0.00229793
0.00254519
0.00283926
0.0031756
0.00354249
0.00393502
0.00435149
0.00478438
0.00532599
0.00574111
0.00565082
0.00154846
0.000234596
0.00656586
0.00490542
0.00534078
0.00589255
0.00608881
0.00580245
0.00439288
0.00287563
0.00214354
0.00178665
0.00157727
0.00145372
0.00139307
0.00135568
0.00133067
0.00130913
0.00129004
0.00127421
0.00126576
0.00126271
0.00126879
0.00129147
0.00133121
0.00139278
0.00148118
0.00160242
0.00176415
0.00197509
0.00224437
0.00257858
0.00297673
0.00342324
0.00388537
0.00433506
0.00474822
0.00518696
0.00562184
0.00578465
0.0033967
0.000585769
0.00801115
0.00605081
0.00620968
0.00625145
0.00581148
0.00468443
0.00305491
0.00212576
0.00169673
0.0014837
0.00135223
0.00127964
0.00123432
0.0011937
0.00115534
0.00111577
0.00107808
0.00104439
0.00101778
0.00100356
0.000998658
0.00100634
0.00103614
0.00108546
0.00116166
0.00126983
0.001419
0.00162027
0.00188775
0.0022366
0.00267799
0.00320831
0.00379368
0.00436286
0.00486568
0.00520552
0.00560788
0.00582145
0.0051668
0.00159194
0.00907253
0.00688322
0.00673462
0.00617913
0.00514526
0.0035326
0.00226698
0.00169325
0.0014241
0.00128587
0.00119517
0.00113901
0.00108791
0.00103474
0.000980592
0.000926218
0.000875945
0.000832133
0.000797524
0.000776401
0.000767482
0.000766597
0.000787917
0.000826743
0.000889324
0.000980725
0.00110964
0.00128815
0.00153311
0.00186644
0.00231277
0.00289045
0.00359107
0.00434958
0.00503118
0.0054781
0.00574131
0.0059223
0.00576141
0.00283315
0.0098316
0.00741857
0.00695271
0.00591615
0.00429283
0.00265731
0.00180672
0.00142493
0.00124286
0.00114224
0.00106848
0.00101057
0.000947961
0.00088289
0.000817759
0.000755667
0.000700406
0.000653846
0.000617709
0.000594126
0.000583204
0.000580495
0.000594134
0.000624898
0.000674997
0.000749979
0.000857373
0.00100887
0.00122172
0.0015208
0.00193934
0.00251475
0.00327161
0.00418161
0.0051038
0.00575444
0.00605432
0.00618567
0.00611093
0.0040232
0.0102382
0.0076485
0.00688586
0.00540599
0.00349792
0.00212539
0.0015175
0.00124372
0.00111054
0.00102692
0.00095663
0.000890777
0.00081843
0.000745863
0.000675907
0.000612213
0.000557347
0.000512377
0.00047796
0.000454863
0.000443796
0.000440465
0.000449078
0.000473333
0.000513243
0.000573999
0.000662029
0.000787842
0.000967686
0.00122671
0.00160246
0.00214606
0.00291336
0.0039302
0.00511737
0.00604467
0.00640609
0.00651101
0.00645454
0.00497889
0.0102235
0.00762484
0.00668775
0.00485212
0.00285736
0.0017834
0.00132168
0.00111133
0.0010063
0.000928285
0.00085566
0.000782057
0.000703956
0.000628498
0.000558454
0.000496937
0.000445301
0.000403847
0.000372459
0.000351075
0.000340622
0.000337182
0.000342658
0.000361808
0.000393819
0.000443083
0.000515058
0.000618756
0.000768563
0.000987817
0.00131401
0.00180451
0.00253644
0.00358404
0.00494802
0.00629973
0.00686856
0.00697446
0.00673482
0.00587209
0.0100955
0.00750195
0.00633109
0.00429666
0.00241504
0.00155009
0.00118046
0.00101044
0.000919782
0.000842238
0.000765888
0.000687057
0.00060689
0.000531919
0.000464565
0.000406999
0.000359641
0.000322204
0.00029409
0.000274766
0.000265193
0.00026189
0.000265455
0.000280715
0.000306752
0.000347123
0.000406495
0.000492509
0.000617618
0.000802682
0.00108314
0.00151813
0.0021985
0.00323598
0.00469083
0.00641225
0.00735455
0.00751881
0.00717604
0.00669566
0.0097913
0.00723525
0.00591416
0.00381076
0.00211358
0.00138354
0.00107394
0.000930437
0.000846466
0.000767702
0.000688263
0.000606923
0.000527275
0.000454768
0.000391331
0.000338214
0.000295195
0.000261587
0.000236526
0.000219223
0.000210557
0.000207492
0.000209917
0.000222221
0.000243722
0.000277253
0.000326829
0.000398928
0.000504152
0.000660531
0.000899857
0.0012789
0.00189524
0.00289506
0.00442435
0.0064354
0.00785417
0.00813476
0.00765743
0.00749912
0.00927091
0.00691438
0.0054919
0.00341894
0.00189888
0.0012611
0.000991702
0.000865598
0.000784412
0.000704369
0.000623102
0.000541362
0.000463727
0.000394568
0.000335308
0.000286453
0.000247373
0.000217128
0.000194715
0.000179267
0.000171402
0.000168596
0.000170359
0.000180416
0.000198445
0.000226729
0.000268773
0.000330187
0.000420112
0.000554118
0.000760148
0.00109028
0.00164107
0.00257608
0.00410777
0.00633315
0.00832069
0.00883298
0.00824587
0.00827769
0.00867686
0.00656373
0.00509023
0.00311413
0.00174374
0.00116957
0.000927421
0.000812657
0.000732547
0.000651828
0.000569976
0.000489196
0.000414258
0.000348632
0.000293288
0.000248199
0.000212484
0.000185059
0.000164853
0.000150968
0.000143771
0.0001412
0.000142587
0.000150933
0.000166267
0.000190474
0.000226647
0.000279733
0.000357736
0.00047418
0.00065343
0.000942214
0.00143286
0.00229874
0.00380462
0.00616077
0.0087343
0.00959712
0.00887412
0.00905026
0.00796556
0.00623233
0.00473344
0.00288371
0.00163205
0.00110172
0.00087742
0.000769703
0.000690117
0.000609415
0.000527955
0.000448915
0.000376846
0.000314531
0.000262593
0.000220655
0.000187692
0.00016254
0.000144103
0.000131465
0.000124765
0.000122371
0.000123546
0.000130597
0.000143838
0.000164881
0.000196478
0.000243088
0.000311891
0.000414876
0.000573418
0.000828778
0.001266
0.0020589
0.00351255
0.00595122
0.00906199
0.0104042
0.00963473
0.00981546
0.00727352
0.00591063
0.00442437
0.00271606
0.00155631
0.00105187
0.00083881
0.000735234
0.000656141
0.000576216
0.000495925
0.000418946
0.000349583
0.000290175
0.000241078
0.000201682
0.00017088
0.000147485
0.000130402
0.000118716
0.000112324
0.000110017
0.000111041
0.000117121
0.000128748
0.000147346
0.000175366
0.000216891
0.000278492
0.000371048
0.000513669
0.00074287
0.0011358
0.00186123
0.00325181
0.00574584
0.00930287
0.0112435
0.0104673
0.0105743
0.0064556
0.00562327
0.00417259
0.00259984
0.00150717
0.00101913
0.000810525
0.000708415
0.000630033
0.000551354
0.000472622
0.000397914
0.000331125
0.000274165
0.000227257
0.000189729
0.000160508
0.000138405
0.000122314
0.000111315
0.000105069
0.000102764
0.000103811
0.00010924
0.000119594
0.000136157
0.000161311
0.000198871
0.000254846
0.000339329
0.00046984
0.000678947
0.00103572
0.00169945
0.00301809
0.00554436
0.00946023
0.0121161
0.0114187
0.011331
0.00578691
0.00538053
0.00397051
0.00252546
0.00149039
0.000998498
0.000790691
0.000688228
0.000610364
0.000533623
0.000457205
0.000384626
0.000319717
0.000264571
0.0002194
0.00018353
0.000155649
0.000134501
0.000119032
0.000108401
0.00010209
9.96385e-05
0.000100852
0.000105818
0.000115358
0.000130667
0.00015375
0.000187963
0.00023904
0.000317245
0.000438613
0.000632769
0.000961502
0.00157228
0.00281632
0.0053369
0.00957718
0.01301
0.0124713
0.0120771
0.00521387
0.00515973
0.00384106
0.00248922
0.00149888
0.00100075
0.000780013
0.000674322
0.000597396
0.000522583
0.000447931
0.000377856
0.000315759
0.000262772
0.000219066
0.000183816
0.000156197
0.00013519
0.000119777
0.000109122
0.000102641
9.99282e-05
0.000100824
0.000105185
0.00011418
0.00012879
0.000150728
0.000182939
0.00023103
0.000304045
0.000417898
0.000601076
0.000908731
0.00147532
0.00264734
0.00513865
0.00964032
0.013914
0.0136521
0.0128193
0.00470323
0.00497218
0.0037613
0.00249623
0.001526
0.00101333
0.000781713
0.000666705
0.00058842
0.000516322
0.000445865
0.000378457
0.000317362
0.000265009
0.000221706
0.000186839
0.000159473
0.000138581
0.000123195
0.000112516
0.000105977
0.000103318
0.00010409
0.000107869
0.000116081
0.000129692
0.000150415
0.000181516
0.000228068
0.000298062
0.00040764
0.000583666
0.000875982
0.00140598
0.00251149
0.00495515
0.00967482
0.0148528
0.0149318
0.0135447
0.00423708
0.00482676
0.00374821
0.00252686
0.00158276
0.00104274
0.000790405
0.000667876
0.000587339
0.000516751
0.00044779
0.000382059
0.000322474
0.000271147
0.000228504
0.000194066
0.000166902
0.000146019
0.000130517
0.000119644
0.00011285
0.000109942
0.000110628
0.000114084
0.000121863
0.000135079
0.000155054
0.000184559
0.000228523
0.000296529
0.000403925
0.000576312
0.000860572
0.00136388
0.00240952
0.00479036
0.00968955
0.0157946
0.0163321
0.0142578
0.00379822
0.00471388
0.00376628
0.00259604
0.00166852
0.00109826
0.000811005
0.000674089
0.0005898
0.000519716
0.00045308
0.000390168
0.000332899
0.000282826
0.000240661
0.000206247
0.000178862
0.000157631
0.000141722
0.000130429
0.000123218
0.000119968
0.000120585
0.000123841
0.000131333
0.00014437
0.000164067
0.000193118
0.000236249
0.000301914
0.000405706
0.000575172
0.000855923
0.0013448
0.00233827
0.00465354
0.0096978
0.0167362
0.0178552
0.0149456
0.00338155
0.00463589
0.00381695
0.00270332
0.00178413
0.00117951
0.000852008
0.000689334
0.000597028
0.000526658
0.000462973
0.000402758
0.000347483
0.000298634
0.000256998
0.000222599
0.000194927
0.000173257
0.000156853
0.000145072
0.000137404
0.00013376
0.000134325
0.000137467
0.000144808
0.000157851
0.000177546
0.000206504
0.000249348
0.00031468
0.000418319
0.000587349
0.00086493
0.00134043
0.00230187
0.00454517
0.00970947
0.0176677
0.0194988
0.0156098
0.00297186
0.00456897
0.00390573
0.00284704
0.0019356
0.00129196
0.000916234
0.000720205
0.00061235
0.000538772
0.000476321
0.000418629
0.000365553
0.000318175
0.000277282
0.000243053
0.000215182
0.000193112
0.000176226
0.00016397
0.000155872
0.000151838
0.000152375
0.000155483
0.000162808
0.000176035
0.000196
0.000225292
0.000268513
0.000334272
0.000438558
0.000609537
0.000890721
0.00135958
0.00228899
0.00446063
0.00971688
0.0186127
0.0212504
0.0162386
0.00257027
0.00451508
0.0040256
0.00300837
0.00211708
0.00144038
0.00101133
0.000772374
0.00064076
0.000557839
0.000493875
0.000437711
0.000386719
0.000341035
0.000301202
0.000267452
0.000239635
0.000217359
0.000200138
0.000187525
0.000179107
0.000174784
0.000175337
0.000178504
0.000185965
0.000199551
0.000220043
0.000250081
0.000294335
0.000361621
0.000468201
0.000643039
0.000930103
0.00140143
0.00229644
0.00440915
0.00970968
0.0195518
0.0230785
0.0168335
0.00215756
0.0044112
0.00411436
0.00322029
0.00233028
0.00162595
0.00114285
0.000852615
0.000687428
0.00058772
0.000517724
0.000460858
0.000411135
0.000367055
0.000328516
0.000295597
0.000268199
0.00024605
0.000228776
0.00021605
0.000207506
0.00020313
0.000203773
0.000207118
0.000214907
0.000229044
0.000250336
0.00028156
0.000327553
0.000397507
0.000507948
0.000688753
0.00098468
0.00146447
0.00234011
0.00438899
0.00968712
0.0204603
0.0249338
0.0173859
0.00178029
0.00428034
0.00415845
0.00345187
0.0025732
0.00185292
0.00132088
0.000973247
0.000763289
0.000636375
0.000552898
0.000490841
0.00044008
0.000396652
0.000359217
0.000327318
0.000300692
0.000279072
0.00026213
0.000249659
0.000241255
0.000237214
0.000238055
0.000241745
0.000250123
0.000265055
0.000287478
0.00032043
0.000368996
0.000442968
0.000559072
0.000748194
0.00105546
0.00154997
0.00240993
0.00438799
0.00967379
0.0212869
0.0267299
0.0179016
0.00146292
0.00400621
0.00419948
0.00367338
0.002821
0.00210713
0.00154455
0.00114376
0.000881696
0.000716433
0.000609437
0.000534853
0.000478323
0.000432794
0.00039503
0.000363547
0.000337566
0.00031662
0.000300264
0.000288396
0.000280377
0.000277136
0.000278312
0.000282575
0.000291903
0.000307981
0.000332004
0.000367445
0.00041966
0.00049934
0.000623168
0.000823423
0.00114458
0.00166049
0.00251549
0.00444335
0.00967039
0.0220296
0.0284049
0.0183814
0.00118043
0.00344273
0.00426964
0.0038881
0.00308456
0.00238577
0.00181396
0.00137429
0.00105984
0.000846465
0.000703667
0.000605752
0.00053536
0.000482204
0.000440584
0.0004074
0.000380882
0.000360047
0.000344039
0.000332844
0.000325237
0.00032319
0.000324845
0.000329938
0.000340651
0.00035843
0.00038479
0.000423902
0.000481274
0.000568974
0.000703082
0.000918297
0.00125664
0.00180247
0.00266435
0.0045594
0.00971396
0.0226907
0.0298665
0.0188443
0.000924749
0.00258964
0.00419833
0.00397791
0.00333571
0.00267004
0.00211741
0.00166612
0.00131449
0.00105307
0.000864922
0.000730812
0.000634335
0.000563538
0.000510482
0.000470134
0.000439234
0.000415927
0.000398489
0.000386925
0.000379008
0.000377876
0.000380042
0.000386135
0.000398638
0.000418998
0.000448883
0.000493598
0.000558404
0.000657665
0.000805763
0.00104218
0.00140361
0.00199293
0.00288337
0.00478532
0.00988167
0.0233389
0.0310264
0.0193156
0.000796349
0.00181002
0.00389843
0.00391134
0.00358406
0.00296928
0.00245458
0.00201868
0.00165347
0.00135723
0.00112444
0.000945977
0.000811076
0.000709735
0.000633623
0.00057654
0.000533718
0.000502224
0.000479081
0.000463948
0.000453687
0.000451542
0.000453934
0.000460948
0.000475472
0.000499822
0.000535211
0.000588911
0.000665109
0.000782415
0.000951483
0.00122164
0.00161959
0.00227973
0.00324141
0.00522354
0.0103117
0.024113
0.0317541
0.0195874
0.000831674
0.0014039
0.00319643
0.00370063
0.00359277
0.00326557
0.00283723
0.00245266
0.0021059
0.00179775
0.00153281
0.00131162
0.00113173
0.00098799
0.000875069
0.000787154
0.00071929
0.000667848
0.000629572
0.000603118
0.00058565
0.000577223
0.000578955
0.000586292
0.000602596
0.000633634
0.000678868
0.000749057
0.000845934
0.000996312
0.00120358
0.00153731
0.00200594
0.00279942
0.00392659
0.00614344
0.0113605
0.0252712
0.0320505
0.0196847
0.00119652
0.00125436
0.00240789
0.00321004
0.00354791
0.00348461
0.00327938
0.00298418
0.00268694
0.00239745
0.00212284
0.00187248
0.00165136
0.00146238
0.00130237
0.00117422
0.00107287
0.000993928
0.000933407
0.000889249
0.000859741
0.000843139
0.000844902
0.000855228
0.000879063
0.000926847
0.000997057
0.00110627
0.00125278
0.00147836
0.00177472
0.00225162
0.00288363
0.00396588
0.0054506
0.0081928
0.0136825
0.0271537
0.0320514
0.0195165
0.00195369
0.00147199
0.00224842
0.00316339
0.0037279
0.00399174
0.00400725
0.00389681
0.00366743
0.0033967
0.00311571
0.00283928
0.00258155
0.00234992
0.00214856
0.0019762
0.00183435
0.00172225
0.00163743
0.00158149
0.00154502
0.00154586
0.00156211
0.00160291
0.00168112
0.00179692
0.00195337
0.00218094
0.00248063
0.00291233
0.00346642
0.00431261
0.00537343
0.00712864
0.00929964
0.0133309
0.018845
0.0304022
0.0318781
0.0189045
0.00322894
0.00224612
0.00313152
0.00424022
0.00510336
0.00572412
0.00600639
0.00604232
0.00592533
0.00567201
0.00537231
0.00505928
0.00476127
0.00449061
0.00426087
0.00407482
0.00393761
0.00384369
0.00380918
0.00382505
0.00387897
0.00399469
0.0041794
0.00441928
0.00474884
0.00515178
0.00568634
0.00631703
0.00712958
0.00817571
0.00956891
0.0113793
0.0136277
0.0167561
0.0203758
0.0261061
0.0311016
0.0362286
0.0327218
0.0177477
0.00527929
0.00514362
0.00860523
0.0114684
0.0130829
0.0139437
0.0142273
0.0141604
0.0139362
0.0135414
0.0131237
0.0127277
0.0123958
0.0121504
0.0119889
0.0119838
0.0120473
0.0122087
0.0125208
0.0129474
0.0135205
0.0141993
0.015052
0.0160233
0.017243
0.018575
0.0202897
0.0220716
0.024476
0.0267569
0.0299555
0.0328106
0.0369863
0.0403812
0.0453812
0.0483147
0.0473742
0.0421122
0.0331078
0.0154633
0.00358268
0.00548568
0.00709619
0.00873371
0.0102475
0.0116165
0.0127964
0.0137405
0.0144127
0.0148335
0.0150967
0.0151728
0.015142
0.015048
0.0148859
0.0146692
0.0144352
0.0142027
0.0139665
0.0137425
0.0135375
0.0133496
0.0131978
0.0130613
0.0129784
0.0129048
0.0129051
0.0129269
0.0129969
0.013086
0.0132846
0.0134685
0.0139078
0.0142497
0.0150244
0.0155293
0.0163826
0.0164614
0.0159053
0.0132832
)
;

boundaryField
{
    movingWall
    {
        type            epsilonWallFunction;
        value           nonuniform List<scalar> 
40
(
0.00358268
0.00548568
0.00709619
0.00873371
0.0102475
0.0116165
0.0127964
0.0137405
0.0144127
0.0148335
0.0150967
0.0151728
0.015142
0.015048
0.0148859
0.0146692
0.0144352
0.0142027
0.0139665
0.0137425
0.0135375
0.0133496
0.0131978
0.0130613
0.0129784
0.0129048
0.0129051
0.0129269
0.0129969
0.013086
0.0132846
0.0134685
0.0139078
0.0142497
0.0150244
0.0155293
0.0163826
0.0164614
0.0159053
0.0132832
)
;
    }
    fixedWalls
    {
        type            epsilonWallFunction;
        value           nonuniform List<scalar> 
120
(
3.21938e-05
0.000154796
0.000465402
0.00105616
0.00196855
0.00326016
0.00485931
0.00656586
0.00801115
0.00907253
0.0098316
0.0102382
0.0102235
0.0100955
0.0097913
0.00927091
0.00867686
0.00796556
0.00727352
0.0064556
0.00578691
0.00521387
0.00470323
0.00423708
0.00379822
0.00338155
0.00297186
0.00257027
0.00215756
0.00178029
0.00146292
0.00118043
0.000924749
0.000796349
0.000831674
0.00119652
0.00195369
0.00322894
0.00527929
0.00358268
5.3437e-05
8.89667e-05
7.28675e-05
5.00637e-05
5.6846e-05
0.000104586
0.000234596
0.000585769
0.00159194
0.00283315
0.0040232
0.00497889
0.00587209
0.00669566
0.00749912
0.00827769
0.00905026
0.00981546
0.0105743
0.011331
0.0120771
0.0128193
0.0135447
0.0142578
0.0149456
0.0156098
0.0162386
0.0168335
0.0173859
0.0179016
0.0183814
0.0188443
0.0193156
0.0195874
0.0196847
0.0195165
0.0189045
0.0177477
0.0154633
0.0132832
3.21938e-05
0.000105314
0.000200441
0.000198015
0.000179948
0.000184274
0.000239059
0.000407852
0.000612335
0.000904836
0.00136326
0.00167725
0.00184571
0.00206775
0.00240271
0.00282032
0.0031985
0.00363599
0.00405168
0.00453397
0.00502048
0.00558346
0.00618654
0.00689638
0.00770819
0.00841931
0.00914959
0.00976449
0.010299
0.0105833
0.0106954
0.0104697
0.00964325
0.00823469
0.00622867
0.00374714
0.00184795
0.000787281
0.000254407
5.3437e-05
)
;
    }
    frontAndBack
    {
        type            empty;
    }
}


// ************************************************************************* //
