/*--------------------------------*- C++ -*----------------------------------*\
  =========                 |
  \\      /  F ield         | OpenFOAM: The Open Source CFD Toolbox
   \\    /   O peration     | Website:  https://openfoam.org
    \\  /    A nd           | Version:  12
     \\/     M anipulation  |
\*---------------------------------------------------------------------------*/
FoamFile
{
    format      ascii;
    class       volScalarField;
    location    "10";
    object      k;
}
// * * * * * * * * * * * * * * * * * * * * * * * * * * * * * * * * * * * * * //

dimensions      [0 2 -2 0 0 0 0];

internalField   nonuniform List<scalar> 
1600
(
2.51575e-06
8.22919e-06
1.56619e-05
1.54722e-05
1.40603e-05
1.43983e-05
1.8679e-05
3.18679e-05
4.7845e-05
7.07014e-05
0.000106517
0.000131049
0.000144213
0.000161565
0.00018774
0.00022037
0.000249919
0.000284102
0.000316581
0.000354264
0.000392275
0.000436262
0.000483382
0.000538843
0.000602266
0.000657826
0.00071488
0.000762921
0.00080468
0.000826892
0.000835651
0.000818013
0.00075344
0.00064339
0.000486659
0.000292777
0.00014439
6.15155e-05
1.98789e-05
4.17556e-06
1.20962e-05
5.24512e-05
9.86005e-05
0.000104227
0.000100886
0.00010811
0.000154044
0.00026319
0.000367131
0.000510775
0.000717374
0.000814217
0.000836087
0.000839714
0.000841219
0.000882807
0.000902479
0.000949038
0.000981647
0.00103432
0.00108156
0.00114115
0.00119756
0.00125674
0.00131084
0.0013804
0.00144629
0.00151765
0.00157679
0.00161123
0.00162322
0.00158607
0.00147619
0.00127894
0.00101226
0.000631445
0.000289194
0.000121771
4.31156e-05
6.95174e-06
3.63673e-05
0.000137466
0.000211636
0.000224479
0.000244475
0.000322753
0.000537147
0.00086482
0.00111331
0.00119593
0.00112406
0.00101311
0.000960686
0.000942947
0.000938816
0.000945189
0.00095554
0.000974867
0.000995034
0.00102395
0.00104943
0.00107874
0.00110851
0.00114317
0.00117975
0.00121995
0.00126077
0.00130333
0.00134435
0.00138306
0.0014045
0.00141275
0.00139504
0.00128324
0.00109499
0.000713234
0.00027032
0.000100471
3.87897e-05
5.69376e-06
8.25282e-05
0.000281156
0.000382798
0.000425064
0.00053136
0.00078035
0.00113454
0.00130955
0.00132854
0.00117489
0.00106062
0.000977771
0.000942232
0.000928201
0.000923449
0.000923388
0.000928102
0.000937718
0.000948212
0.000962551
0.000978791
0.000999883
0.00102119
0.00104552
0.00107044
0.0010972
0.00112474
0.001153
0.00118
0.00120492
0.00122253
0.00123081
0.00123268
0.00121149
0.00115028
0.000972655
0.000431673
0.000104554
2.88294e-05
3.91186e-06
0.00015382
0.000487906
0.00062604
0.000723922
0.000932896
0.00123947
0.00138522
0.001389
0.00124726
0.00105534
0.000961891
0.000916771
0.000895189
0.00088463
0.000880476
0.000880178
0.000891431
0.000903065
0.000919259
0.000936109
0.000954491
0.000973084
0.000992225
0.00101252
0.00103426
0.00105815
0.00108422
0.00111196
0.00113931
0.00116154
0.00117668
0.00118411
0.00118663
0.0011796
0.00115112
0.00108073
0.000819143
0.000227384
3.90517e-05
4.44168e-06
0.000254741
0.000740983
0.000917174
0.0010552
0.00127869
0.00140214
0.0014098
0.00129151
0.00105388
0.00093892
0.000884972
0.000859414
0.000848378
0.000845152
0.00084822
0.000860249
0.00087505
0.000890392
0.000906672
0.000922744
0.000939519
0.000956429
0.000974635
0.000994432
0.00101682
0.0010423
0.00107132
0.00110375
0.00113865
0.00117366
0.00119231
0.001197
0.00119443
0.00118076
0.00115251
0.00110184
0.000965959
0.00047093
8.37849e-05
8.17159e-06
0.00037969
0.00100112
0.00120693
0.00132408
0.00141062
0.00142085
0.00132278
0.00107417
0.000925613
0.000860303
0.000831143
0.000819488
0.000816487
0.000820556
0.000831731
0.000844158
0.000856148
0.000867404
0.000878401
0.000888818
0.000900129
0.00091338
0.000929873
0.000950363
0.000975643
0.00100663
0.00104374
0.00108695
0.00113512
0.00118545
0.00123745
0.00127402
0.00128223
0.00127229
0.00122834
0.00114351
0.00101652
0.000734138
0.000169196
1.83294e-05
0.000513027
0.00125745
0.00143441
0.00146924
0.00145769
0.00135642
0.00112889
0.000930912
0.000845335
0.000809157
0.000795052
0.000791234
0.000792741
0.000800986
0.00080833
0.000814168
0.000817877
0.000820412
0.000822749
0.000826378
0.000832358
0.000842076
0.00085647
0.000876559
0.00090335
0.000937949
0.00098131
0.0010342
0.00109657
0.00116659
0.00123905
0.001306
0.00134847
0.0013562
0.00134349
0.00126893
0.0011055
0.000837282
0.000288772
4.57667e-05
0.000625952
0.00146314
0.0015996
0.00156009
0.00142175
0.00121194
0.000964687
0.000845164
0.000794674
0.000774713
0.000768096
0.000766893
0.000769463
0.00077121
0.000771279
0.000767227
0.000761785
0.000755972
0.000752073
0.000750563
0.000751435
0.000758477
0.000770799
0.000789948
0.000816713
0.000852332
0.000898123
0.000955643
0.00102634
0.00111079
0.00120685
0.00130654
0.00138807
0.00142521
0.00142838
0.00139033
0.00125755
0.000987443
0.000524442
0.00012438
0.000708881
0.00160141
0.00170367
0.00155821
0.00133234
0.00105369
0.00087005
0.000792014
0.000760072
0.000747533
0.00074279
0.000740852
0.000738545
0.000732319
0.000722692
0.000710168
0.000697465
0.000685762
0.000676745
0.00067228
0.000670924
0.000675096
0.00068621
0.000704166
0.000730177
0.000765263
0.00081089
0.000868912
0.000941667
0.00103165
0.00114041
0.00126571
0.00139646
0.00148469
0.00151028
0.00149359
0.00138011
0.00110841
0.000638262
0.000221356
0.000768189
0.00169303
0.00176669
0.0015294
0.00121155
0.000940313
0.000810405
0.000755303
0.00073216
0.000721967
0.00071684
0.000710618
0.000700855
0.000686335
0.000668921
0.000650267
0.000632641
0.000617219
0.000605292
0.000598832
0.000596451
0.000598319
0.000608488
0.000625235
0.000650201
0.000684207
0.000728723
0.00078561
0.000857467
0.000947671
0.00105992
0.00119628
0.00135236
0.00150832
0.00158804
0.00159972
0.00152791
0.00127001
0.000784244
0.000314334
0.000799962
0.00172677
0.00176809
0.00146656
0.00109975
0.000869065
0.00076871
0.000725763
0.000706681
0.000697261
0.000688779
0.000676471
0.0006594
0.000638204
0.000615352
0.00059271
0.000572069
0.000554456
0.000540829
0.000532944
0.000529837
0.000529966
0.000538964
0.000554486
0.000578183
0.00061087
0.000653953
0.000709218
0.000779253
0.000867794
0.000979945
0.00112141
0.00129502
0.00149204
0.00163897
0.00168208
0.00164402
0.00140186
0.000903519
0.000389002
0.000798812
0.00172273
0.00175109
0.00139081
0.00100825
0.000818428
0.000736122
0.000700015
0.000683081
0.000672189
0.000658994
0.000640666
0.000617669
0.00059174
0.000565393
0.000540327
0.000517924
0.000499016
0.000484307
0.000475062
0.000471029
0.000470434
0.00047774
0.000492019
0.00051428
0.00054549
0.000586987
0.000640461
0.000708299
0.000794051
0.000903047
0.00104261
0.00122023
0.00143633
0.00166067
0.0017666
0.00176784
0.00155479
0.00102439
0.000458786
0.000788808
0.00170203
0.00171039
0.00130952
0.000944881
0.000780092
0.000708861
0.000676665
0.000660696
0.000646966
0.000628996
0.00060561
0.000578284
0.000549242
0.000520762
0.000494281
0.000470853
0.000451133
0.000435651
0.000425259
0.000420425
0.000419301
0.000424941
0.000437887
0.000458618
0.000488219
0.000528035
0.000579737
0.000645591
0.000728933
0.000835022
0.000972029
0.00115092
0.00138066
0.00165236
0.00183649
0.00186987
0.00169291
0.00114472
0.00052313
0.000765044
0.00165685
0.00164912
0.00123728
0.000897689
0.00074915
0.000685093
0.000655748
0.00063943
0.000622493
0.000600357
0.000573102
0.000542819
0.000511834
0.000482118
0.000454858
0.000430872
0.000410681
0.000394703
0.000383454
0.000377975
0.000376414
0.000380615
0.000392163
0.000411283
0.00043911
0.000477044
0.000526799
0.000590567
0.000671422
0.00077418
0.000906799
0.00108162
0.00131322
0.00160578
0.0018806
0.00197163
0.00183604
0.00126571
0.000585903
0.000724385
0.00159925
0.00158066
0.00117679
0.000860832
0.000723564
0.000664422
0.000637047
0.000619622
0.00059971
0.000574259
0.000544232
0.000512035
0.000479915
0.000449558
0.000421953
0.000397754
0.000377385
0.000361184
0.000349446
0.000343457
0.000341552
0.000344607
0.000354761
0.00037222
0.000398134
0.000433991
0.00048162
0.000543276
0.000621926
0.000722033
0.000851173
0.00102231
0.0012539
0.00155856
0.00189893
0.00205791
0.00197213
0.00139001
0.00064673
0.000677972
0.00153338
0.00151008
0.00112721
0.000831723
0.000702253
0.000646586
0.000620471
0.000601694
0.000579328
0.000551419
0.000519528
0.000486179
0.000453484
0.0004229
0.000395273
0.00037114
0.000350852
0.000334672
0.000322822
0.00031643
0.00031426
0.000316459
0.000325295
0.000341089
0.000364998
0.000398598
0.000443867
0.000503208
0.000579579
0.000677091
0.000802577
0.00096867
0.00119685
0.00151128
0.00190181
0.00213941
0.00210559
0.00151451
0.00070709
0.000622396
0.00146933
0.00144245
0.0010874
0.000809212
0.000684939
0.000631455
0.000605982
0.000585941
0.000561748
0.000532168
0.000499133
0.000465193
0.000432324
0.00040182
0.000374419
0.000350579
0.000330586
0.000314641
0.000302899
0.000296223
0.000293838
0.000295427
0.000303076
0.000317265
0.000339163
0.000370417
0.000413163
0.00047004
0.00054417
0.000639518
0.000762194
0.000923742
0.0011461
0.00146096
0.00187967
0.00221032
0.00223415
0.00164739
0.000766872
0.000568326
0.00140242
0.00137939
0.00105666
0.000792731
0.000670857
0.000618732
0.000593535
0.000572527
0.000547131
0.000516565
0.000482969
0.000448865
0.00041612
0.000385917
0.000358925
0.000335538
0.00031599
0.000300421
0.000288918
0.000282041
0.000279445
0.000280593
0.000287218
0.000299923
0.000319898
0.000348827
0.000388966
0.000443232
0.000515021
0.000608344
0.000728715
0.000886404
0.00110289
0.00141492
0.00185057
0.00227202
0.00235904
0.00178128
0.000826157
0.00050442
0.00134584
0.00132313
0.00103333
0.000781673
0.000660796
0.000608491
0.000583034
0.000561384
0.000535403
0.000504476
0.000470793
0.000436852
0.000404467
0.000374738
0.00034828
0.000325444
0.000306419
0.000291295
0.000280105
0.000273103
0.000270251
0.000271061
0.000276788
0.00028817
0.0003064
0.000333148
0.000370717
0.000422329
0.000491733
0.000583202
0.00070184
0.000856467
0.00106708
0.00137354
0.00181868
0.00231621
0.00248164
0.00192366
0.000885278
0.000452172
0.00128449
0.00127479
0.00101701
0.00077733
0.000653052
0.000600291
0.000574397
0.000552458
0.000526429
0.000495656
0.00046234
0.000428882
0.000396999
0.000367814
0.000341953
0.000319728
0.000301272
0.000286614
0.000275742
0.000268718
0.000265615
0.000266427
0.000271549
0.000281854
0.000298439
0.000322895
0.000357851
0.000406872
0.000473862
0.000563572
0.000680944
0.000833358
0.0010387
0.00133844
0.00178943
0.00234876
0.0026019
0.00206859
0.000943569
0.000407398
0.0012212
0.00122897
0.00100974
0.00077924
0.000651705
0.000594547
0.00056738
0.000545361
0.000519818
0.00048978
0.000457118
0.000424259
0.000393236
0.000364999
0.000339981
0.000318441
0.000300481
0.000286114
0.000275333
0.00026818
0.000264793
0.000265409
0.000269916
0.000279551
0.00029505
0.000317947
0.000350718
0.000396807
0.000461108
0.000549162
0.000665683
0.000816683
0.00101727
0.00130893
0.0017628
0.00236845
0.00271983
0.00222139
0.00100155
0.000367498
0.00115878
0.00118813
0.00101047
0.000785715
0.000653827
0.000591711
0.000562336
0.00054018
0.000515422
0.000486377
0.000455079
0.000423732
0.000393557
0.000365758
0.000341096
0.000319871
0.000302184
0.000288049
0.000277455
0.000270434
0.000267116
0.00026757
0.000271292
0.000279862
0.00029445
0.000316399
0.000347935
0.000392052
0.000454248
0.000540474
0.000656492
0.000807166
0.00100321
0.0012853
0.00173777
0.00238234
0.00283567
0.00237818
0.00105822
0.000331075
0.00109862
0.00115156
0.00101389
0.000799794
0.000660193
0.000592578
0.000558853
0.000536285
0.000512607
0.000485404
0.000455594
0.000425029
0.000395642
0.000368585
0.000344555
0.000323914
0.000306725
0.000292982
0.000282658
0.000275763
0.000272447
0.000272867
0.000276163
0.000284012
0.000297648
0.000318111
0.000347789
0.000390664
0.000451656
0.000536671
0.000652415
0.000803145
0.000996508
0.00126753
0.00171377
0.00238929
0.00294808
0.00254134
0.00111394
0.000296784
0.00103982
0.0011199
0.00102177
0.000818827
0.000673377
0.000596334
0.000559049
0.000534347
0.000511505
0.000485925
0.000457456
0.000428377
0.000400343
0.000374456
0.000351341
0.000331322
0.000314572
0.000301125
0.000290965
0.000284102
0.000280747
0.000281175
0.000284249
0.00029164
0.000304728
0.000324383
0.000352805
0.000393505
0.000452028
0.000535978
0.000651585
0.000802506
0.000994477
0.0012567
0.00169231
0.00239239
0.00305774
0.00270902
0.00116767
0.000264226
0.000983208
0.00109234
0.0010279
0.000849024
0.000694453
0.000604932
0.000561218
0.000534786
0.000511972
0.000487509
0.000461244
0.00043405
0.000407496
0.000382764
0.000360557
0.000341248
0.000325023
0.000311944
0.000302024
0.000295274
0.000291985
0.000292472
0.000295475
0.000302632
0.000315377
0.000334486
0.000362094
0.000401724
0.00045898
0.000541582
0.000657142
0.000808989
0.000998412
0.00125191
0.00167296
0.00239315
0.00316171
0.00288128
0.00121956
0.000232214
0.000925075
0.00106826
0.00102932
0.000884649
0.00072515
0.000622236
0.000567385
0.000537029
0.00051362
0.000490618
0.000466293
0.000441113
0.000416301
0.000392972
0.000371877
0.000353443
0.000337891
0.00032532
0.000315779
0.000309267
0.000306209
0.000306815
0.000309881
0.000317017
0.000329612
0.000348416
0.000375505
0.000414356
0.000470615
0.000552428
0.000667927
0.00082049
0.0010087
0.00125088
0.00165535
0.0023903
0.00326203
0.00305515
0.00126869
0.000200834
0.000866921
0.00104357
0.00102726
0.00092364
0.000763117
0.00064827
0.000580442
0.000542822
0.000517318
0.000494984
0.000472387
0.000449248
0.000426364
0.000404685
0.000384948
0.000367617
0.000352956
0.000341096
0.000332137
0.00032603
0.000323448
0.000324242
0.000327503
0.000334836
0.000347466
0.000366192
0.000393067
0.000431556
0.000487276
0.000568531
0.000683835
0.000836728
0.00102342
0.00125531
0.00163903
0.00237791
0.00335731
0.00322865
0.00131516
0.000168585
0.000801187
0.00102111
0.00102097
0.000958406
0.000812392
0.00068568
0.000603545
0.000555029
0.000524759
0.000501333
0.000479663
0.000458288
0.000437356
0.00041751
0.000399379
0.000383419
0.000369916
0.00035902
0.000350907
0.000345397
0.000343608
0.000344672
0.000348265
0.000356023
0.000368869
0.000387739
0.000414684
0.000453196
0.00050879
0.000589736
0.000704534
0.000856937
0.00104149
0.00126295
0.00162486
0.00235805
0.00344465
0.00339604
0.00135832
0.000139104
0.000739836
0.000995343
0.00101307
0.000977258
0.000866692
0.000735679
0.000639651
0.000578106
0.000539381
0.000512096
0.00048958
0.00046898
0.000449545
0.000431412
0.000414966
0.000400555
0.000388445
0.000378759
0.000371757
0.000367066
0.000366384
0.000367803
0.000371883
0.000380311
0.000393554
0.000412789
0.000440077
0.000478977
0.000534789
0.000615548
0.000729275
0.000879951
0.00106115
0.00127193
0.00161171
0.00232927
0.00351834
0.00355137
0.00139861
0.000114304
0.000672686
0.000976805
0.0010053
0.000985982
0.000916201
0.000794776
0.000690578
0.000615603
0.000565429
0.000530916
0.000504849
0.000483162
0.000464069
0.000447011
0.000431955
0.000419021
0.000408358
0.000400037
0.000394244
0.000390801
0.000391076
0.000393081
0.000397956
0.000407208
0.000421016
0.000440836
0.000468723
0.000508316
0.000564532
0.000644985
0.000756725
0.00090397
0.00108013
0.0012799
0.00159802
0.00229714
0.00357629
0.00368617
0.00143609
9.22299e-05
0.000587408
0.000968431
0.00100382
0.000992034
0.000950225
0.000857168
0.000756311
0.000672652
0.000610311
0.000565292
0.000531952
0.000505975
0.000484792
0.000467091
0.000452271
0.000440091
0.000430399
0.00042327
0.000418398
0.000416541
0.000417357
0.00042013
0.000426106
0.000436126
0.000450648
0.000471262
0.000499938
0.000540391
0.000596905
0.000676558
0.000784999
0.000926816
0.00109618
0.00128584
0.00158728
0.00226715
0.00361667
0.00378876
0.00147226
7.22522e-05
0.00048567
0.000947378
0.00100464
0.00099934
0.000975988
0.00091684
0.000830367
0.000748123
0.000678484
0.000623078
0.000579908
0.00054615
0.000519443
0.000498158
0.000481203
0.000467982
0.000457866
0.000450963
0.000446259
0.000445349
0.000446505
0.000449818
0.000456615
0.000467316
0.000482534
0.000503988
0.000533425
0.000574594
0.000630857
0.000708771
0.00081237
0.000946906
0.00110849
0.00129079
0.00158294
0.00225348
0.00364314
0.00383921
0.00150908
6.22202e-05
0.000400967
0.000895079
0.000999141
0.0010038
0.000996695
0.000971212
0.000914458
0.000843069
0.000774405
0.000713168
0.000660953
0.000617584
0.000582137
0.000553605
0.000530937
0.000513451
0.000500202
0.000491079
0.000484957
0.000482706
0.000483561
0.000486547
0.000492972
0.000503785
0.000519226
0.000541124
0.000570835
0.000612099
0.000667155
0.00074223
0.000839958
0.000966693
0.00112222
0.00130465
0.00159527
0.00225261
0.00366845
0.0038583
0.00153031
6.49817e-05
0.000371987
0.00079304
0.000972771
0.00100964
0.00102055
0.00101688
0.000998371
0.000956165
0.000898755
0.000839964
0.000784074
0.000733452
0.000689148
0.000651495
0.000620216
0.000594939
0.00057501
0.000559945
0.000549301
0.000542298
0.000540025
0.000541257
0.000545428
0.000554435
0.000568955
0.00059043
0.000619684
0.000660412
0.000713844
0.000786206
0.000879678
0.00100206
0.00115963
0.00135685
0.0016738
0.00233566
0.0037121
0.00384428
0.00153791
9.349e-05
0.000399378
0.000701827
0.000915679
0.00102147
0.00107021
0.00109426
0.00109655
0.00108593
0.00105758
0.00101105
0.000959314
0.000907005
0.000856927
0.000811084
0.000770258
0.000734894
0.000704934
0.000680462
0.000660921
0.00064687
0.000637074
0.000633813
0.000635671
0.000641649
0.000654268
0.000675552
0.000705355
0.000747444
0.000802743
0.000877872
0.000976388
0.00110749
0.00128694
0.00152247
0.0019017
0.00255742
0.00377538
0.00373588
0.00152476
0.000152654
0.000503279
0.00072189
0.000939948
0.00108631
0.00118833
0.00125334
0.0012852
0.00129347
0.00128479
0.00126017
0.00121614
0.00116442
0.00110956
0.00105517
0.00100375
0.000957008
0.000916043
0.000881325
0.000853507
0.000834147
0.000820786
0.000816425
0.00081897
0.000827042
0.000844039
0.000872322
0.000912037
0.000967914
0.00104099
0.00113989
0.00126949
0.00144134
0.00167647
0.00198136
0.00244106
0.00306176
0.00389839
0.00363002
0.0014769
0.000252292
0.000706123
0.000905287
0.00114716
0.00134113
0.00149338
0.00159494
0.00164739
0.00165451
0.00164515
0.00162094
0.00157808
0.00152842
0.00147521
0.00142479
0.00137719
0.00133643
0.00130304
0.00127845
0.0012604
0.00125342
0.00125646
0.00126676
0.00128888
0.00132488
0.00137345
0.00144009
0.00152057
0.00162704
0.00175635
0.00192998
0.00213399
0.00240005
0.00271463
0.00310997
0.00360376
0.00403154
0.00416178
0.00349334
0.00138642
0.00041248
0.00115851
0.0015898
0.00198908
0.00223523
0.00238864
0.00247274
0.00250251
0.00249308
0.00246991
0.00243926
0.00240266
0.00236841
0.00233375
0.00231202
0.00229107
0.00228863
0.00229414
0.00230881
0.00233862
0.00238087
0.00243779
0.00250935
0.00259623
0.00270229
0.00282345
0.00297251
0.00313122
0.00333652
0.00352885
0.00379847
0.00401999
0.00436336
0.00458494
0.00499578
0.00509079
0.00495479
0.00435152
0.00305437
0.00120791
0.000279921
0.000428602
0.000554431
0.00068237
0.000800646
0.000907608
0.000999794
0.00107356
0.00112608
0.00115896
0.00117952
0.00118547
0.00118306
0.00117572
0.00116305
0.00114612
0.00112783
0.00110967
0.00109121
0.00107371
0.00105768
0.001043
0.00103114
0.00102047
0.00101399
0.00100823
0.00100825
0.00100995
0.0010154
0.0010225
0.00103769
0.00105241
0.00108642
0.00111337
0.00117374
0.00121322
0.00127996
0.00128605
0.00124264
0.00103782
)
;

boundaryField
{
    movingWall
    {
        type            kqRWallFunction;
        value           nonuniform List<scalar> 
40
(
0.000279921
0.000428602
0.000554431
0.00068237
0.000800646
0.000907608
0.000999794
0.00107356
0.00112608
0.00115896
0.00117952
0.00118547
0.00118306
0.00117572
0.00116305
0.00114612
0.00112783
0.00110967
0.00109121
0.00107371
0.00105768
0.001043
0.00103114
0.00102047
0.00101399
0.00100823
0.00100825
0.00100995
0.0010154
0.0010225
0.00103769
0.00105241
0.00108642
0.00111337
0.00117374
0.00121322
0.00127996
0.00128605
0.00124264
0.00103782
)
;
    }
    fixedWalls
    {
        type            kqRWallFunction;
        value           nonuniform List<scalar> 
120
(
2.51575e-06
1.20962e-05
3.63673e-05
8.25282e-05
0.00015382
0.000254741
0.00037969
0.000513027
0.000625952
0.000708881
0.000768189
0.000799962
0.000798812
0.000788808
0.000765044
0.000724385
0.000677972
0.000622396
0.000568326
0.00050442
0.000452172
0.000407398
0.000367498
0.000331075
0.000296784
0.000264226
0.000232214
0.000200834
0.000168585
0.000139104
0.000114304
9.22299e-05
7.22522e-05
6.22202e-05
6.49817e-05
9.349e-05
0.000152654
0.000252292
0.00041248
0.000279921
4.17556e-06
6.95174e-06
5.69376e-06
3.91186e-06
4.44168e-06
8.17159e-06
1.83294e-05
4.57667e-05
0.00012438
0.000221356
0.000314334
0.000389002
0.000458786
0.00052313
0.000585903
0.00064673
0.00070709
0.000766872
0.000826157
0.000885278
0.000943569
0.00100155
0.00105822
0.00111394
0.00116767
0.00121956
0.00126869
0.00131516
0.00135832
0.00139861
0.00143609
0.00147226
0.00150908
0.00153031
0.00153791
0.00152476
0.0014769
0.00138642
0.00120791
0.00103782
2.51575e-06
8.22919e-06
1.56619e-05
1.54722e-05
1.40603e-05
1.43983e-05
1.8679e-05
3.18679e-05
4.7845e-05
7.07014e-05
0.000106517
0.000131049
0.000144213
0.000161565
0.00018774
0.00022037
0.000249919
0.000284102
0.000316581
0.000354264
0.000392275
0.000436262
0.000483382
0.000538843
0.000602266
0.000657826
0.00071488
0.000762921
0.00080468
0.000826892
0.000835651
0.000818013
0.00075344
0.00064339
0.000486659
0.000292777
0.00014439
6.15155e-05
1.98789e-05
4.17556e-06
)
;
    }
    frontAndBack
    {
        type            empty;
    }
}


// ************************************************************************* //
