/*--------------------------------*- C++ -*----------------------------------*\
  =========                 |
  \\      /  F ield         | OpenFOAM: The Open Source CFD Toolbox
   \\    /   O peration     | Website:  https://openfoam.org
    \\  /    A nd           | Version:  12
     \\/     M anipulation  |
\*---------------------------------------------------------------------------*/
FoamFile
{
    format      ascii;
    class       volScalarField;
    location    "10";
    object      nut;
}
// * * * * * * * * * * * * * * * * * * * * * * * * * * * * * * * * * * * * * //

dimensions      [0 2 -1 0 0 0 0];

internalField   nonuniform List<scalar> 
1600
(
1.76931e-08
5.78724e-08
1.1014e-07
1.08805e-07
9.88751e-08
1.01252e-07
1.31355e-07
2.24102e-07
3.36454e-07
4.97197e-07
7.49038e-07
9.2153e-07
1.01411e-06
1.13616e-06
1.32025e-06
1.54971e-06
1.7575e-06
1.99788e-06
2.22626e-06
2.49125e-06
2.75854e-06
3.06785e-06
3.39919e-06
3.78918e-06
4.23514e-06
4.62581e-06
5.02698e-06
5.36478e-06
5.65841e-06
5.81458e-06
5.87616e-06
5.7521e-06
5.29805e-06
4.52423e-06
3.42213e-06
2.05882e-06
1.01537e-06
4.32596e-07
1.39798e-07
2.9365e-08
8.50707e-08
1.28966e-06
3.8021e-06
4.48768e-06
4.38067e-06
4.20034e-06
4.82033e-06
6.52251e-06
7.11065e-06
8.25284e-06
9.54526e-06
1.04344e-05
1.09038e-05
1.17866e-05
1.26169e-05
1.43053e-05
1.5376e-05
1.71482e-05
1.83755e-05
1.9949e-05
2.12026e-05
2.26061e-05
2.38155e-05
2.48339e-05
2.53873e-05
2.62274e-05
2.67476e-05
2.7236e-05
2.73757e-05
2.70377e-05
2.67695e-05
2.54534e-05
2.36213e-05
2.03949e-05
1.7069e-05
1.13445e-05
5.58276e-06
2.23677e-06
7.6541e-07
4.88879e-08
2.55763e-07
3.50184e-06
8.33719e-06
9.96898e-06
1.0494e-05
1.0938e-05
1.38269e-05
1.74932e-05
1.83848e-05
1.85452e-05
1.70529e-05
1.62354e-05
1.59432e-05
1.7441e-05
1.89415e-05
2.08043e-05
2.27365e-05
2.47999e-05
2.66077e-05
2.85447e-05
3.00992e-05
3.13994e-05
3.20909e-05
3.26597e-05
3.29805e-05
3.3154e-05
3.30377e-05
3.26648e-05
3.19244e-05
3.07379e-05
2.88175e-05
2.68728e-05
2.53025e-05
2.16333e-05
1.80315e-05
1.12082e-05
4.933e-06
2.43188e-06
9.90884e-07
4.00413e-08
5.80389e-07
7.58979e-06
1.44089e-05
1.66903e-05
1.78278e-05
1.97276e-05
2.21974e-05
2.25006e-05
2.20191e-05
1.90748e-05
1.8271e-05
1.97317e-05
2.17749e-05
2.46221e-05
2.66717e-05
2.92499e-05
3.11054e-05
3.28818e-05
3.41391e-05
3.53228e-05
3.61357e-05
3.67991e-05
3.71666e-05
3.73815e-05
3.7361e-05
3.71291e-05
3.66375e-05
3.58591e-05
3.47085e-05
3.31791e-05
3.11046e-05
2.84647e-05
2.52379e-05
2.1905e-05
1.90038e-05
1.46937e-05
5.62289e-06
1.912e-06
6.85869e-07
2.75097e-08
1.08174e-06
1.35602e-05
2.12844e-05
2.27107e-05
2.3713e-05
2.54393e-05
2.55266e-05
2.4792e-05
2.19268e-05
2.09682e-05
2.29662e-05
2.52992e-05
2.82125e-05
3.0931e-05
3.30631e-05
3.48596e-05
3.66403e-05
3.79462e-05
3.93355e-05
4.00981e-05
4.08177e-05
4.12213e-05
4.14822e-05
4.15321e-05
4.14343e-05
4.11466e-05
4.06392e-05
3.98395e-05
3.86611e-05
3.68785e-05
3.45284e-05
3.17578e-05
2.87403e-05
2.50826e-05
2.03644e-05
1.6837e-05
1.08077e-05
2.91964e-06
6.82299e-07
3.12347e-08
1.79144e-06
1.98645e-05
2.71821e-05
2.76036e-05
2.81114e-05
2.75931e-05
2.6776e-05
2.43782e-05
2.28997e-05
2.50857e-05
2.74891e-05
3.05367e-05
3.3482e-05
3.57991e-05
3.75275e-05
3.9312e-05
4.08793e-05
4.21619e-05
4.30828e-05
4.37831e-05
4.43395e-05
4.46619e-05
4.48317e-05
4.48095e-05
4.46597e-05
4.43499e-05
4.38873e-05
4.3235e-05
4.23379e-05
4.10916e-05
3.85419e-05
3.51438e-05
3.16978e-05
2.79761e-05
2.36652e-05
1.87732e-05
1.36731e-05
4.65613e-06
1.0365e-06
5.74623e-08
2.67009e-06
2.47434e-05
3.17914e-05
3.09533e-05
2.95818e-05
2.87104e-05
2.64805e-05
2.43402e-05
2.63673e-05
2.91121e-05
3.19876e-05
3.52432e-05
3.75593e-05
3.94496e-05
4.13002e-05
4.28808e-05
4.42076e-05
4.5299e-05
4.60829e-05
4.66762e-05
4.7065e-05
4.73082e-05
4.74403e-05
4.7457e-05
4.73499e-05
4.71264e-05
4.67752e-05
4.62725e-05
4.55621e-05
4.45458e-05
4.33985e-05
4.1237e-05
3.76032e-05
3.34794e-05
2.83828e-05
2.20965e-05
1.61988e-05
8.58395e-06
1.66389e-06
1.28889e-07
3.60771e-06
2.901e-05
3.46727e-05
3.29705e-05
3.14081e-05
2.85379e-05
2.61094e-05
2.71222e-05
3.00033e-05
3.29813e-05
3.60685e-05
3.87589e-05
4.06007e-05
4.25926e-05
4.41927e-05
4.5571e-05
4.66677e-05
4.75405e-05
4.81312e-05
4.86741e-05
4.91443e-05
4.94151e-05
4.95931e-05
4.96503e-05
4.95845e-05
4.94111e-05
4.9127e-05
4.87378e-05
4.82194e-05
4.75006e-05
4.64177e-05
4.48429e-05
4.21204e-05
3.8185e-05
3.4212e-05
2.79384e-05
1.95652e-05
1.09071e-05
2.20952e-06
3.21822e-07
4.4018e-06
3.1842e-05
3.7085e-05
3.50395e-05
3.13041e-05
2.82195e-05
2.74169e-05
3.02419e-05
3.34971e-05
3.64065e-05
3.92666e-05
4.13643e-05
4.31707e-05
4.48427e-05
4.63401e-05
4.74807e-05
4.84461e-05
4.92484e-05
5.00161e-05
5.05213e-05
5.08872e-05
5.14495e-05
5.16068e-05
5.174e-05
5.16776e-05
5.14891e-05
5.11602e-05
5.0728e-05
5.02208e-05
4.96501e-05
4.89487e-05
4.78863e-05
4.57095e-05
4.19016e-05
3.77387e-05
3.34207e-05
2.538e-05
1.50743e-05
4.79088e-06
8.74615e-07
4.98496e-06
3.35317e-05
3.87884e-05
3.53645e-05
3.10501e-05
2.82862e-05
3.00527e-05
3.33417e-05
3.651e-05
3.91118e-05
4.15475e-05
4.33689e-05
4.51238e-05
4.66456e-05
4.79359e-05
4.90062e-05
4.99816e-05
5.08624e-05
5.16831e-05
5.2391e-05
5.27862e-05
5.35065e-05
5.37868e-05
5.39786e-05
5.39559e-05
5.37424e-05
5.33315e-05
5.27507e-05
5.20553e-05
5.13211e-05
5.06092e-05
4.98823e-05
4.8874e-05
4.56109e-05
4.08027e-05
3.665e-05
2.98579e-05
1.86705e-05
6.36372e-06
1.55653e-06
5.402e-06
3.47737e-05
4.04026e-05
3.55834e-05
3.07738e-05
2.99464e-05
3.27156e-05
3.60324e-05
3.88179e-05
4.10695e-05
4.32834e-05
4.49728e-05
4.66346e-05
4.80185e-05
4.92456e-05
5.03611e-05
5.14289e-05
5.2438e-05
5.33811e-05
5.43218e-05
5.48999e-05
5.55021e-05
5.60871e-05
5.63014e-05
5.63684e-05
5.61783e-05
5.5744e-05
5.5058e-05
5.41633e-05
5.31479e-05
5.21355e-05
5.12168e-05
5.03115e-05
4.89647e-05
4.44705e-05
4.00245e-05
3.47035e-05
2.34676e-05
9.0581e-06
2.21032e-06
5.62543e-06
3.50863e-05
4.08595e-05
3.58071e-05
3.11186e-05
3.19822e-05
3.5046e-05
3.81162e-05
4.04721e-05
4.26085e-05
4.46332e-05
4.62351e-05
4.78144e-05
4.91476e-05
5.042e-05
5.16445e-05
5.28461e-05
5.39992e-05
5.50771e-05
5.61987e-05
5.69302e-05
5.73887e-05
5.82157e-05
5.84599e-05
5.86205e-05
5.85099e-05
5.81378e-05
5.74597e-05
5.64762e-05
5.525e-05
5.39335e-05
5.27388e-05
5.18087e-05
5.09789e-05
4.72431e-05
4.21274e-05
3.79718e-05
2.71647e-05
1.13829e-05
2.73535e-06
5.61735e-06
3.50303e-05
4.12649e-05
3.58794e-05
3.20193e-05
3.3803e-05
3.68992e-05
3.96839e-05
4.17312e-05
4.3807e-05
4.56777e-05
4.72354e-05
4.87763e-05
5.01419e-05
5.15175e-05
5.28756e-05
5.42152e-05
5.5495e-05
5.66768e-05
5.78553e-05
5.86227e-05
5.90711e-05
5.99466e-05
6.02181e-05
6.04428e-05
6.0441e-05
6.02065e-05
5.96635e-05
5.87484e-05
5.74464e-05
5.58552e-05
5.42162e-05
5.28323e-05
5.18055e-05
5.01621e-05
4.45859e-05
4.09506e-05
3.11943e-05
1.40232e-05
3.22604e-06
5.547e-06
3.47537e-05
4.15869e-05
3.59198e-05
3.32716e-05
3.53327e-05
3.83101e-05
4.07829e-05
4.2713e-05
4.47272e-05
4.64914e-05
4.80436e-05
4.95924e-05
5.10416e-05
5.25381e-05
5.40253e-05
5.54808e-05
5.68488e-05
5.80816e-05
5.92362e-05
5.99873e-05
6.04193e-05
6.12222e-05
6.14753e-05
6.17102e-05
6.18e-05
6.17323e-05
6.14173e-05
6.07347e-05
5.95764e-05
5.79365e-05
5.60133e-05
5.42263e-05
5.30163e-05
5.23847e-05
4.73377e-05
4.27869e-05
3.43053e-05
1.64344e-05
3.67848e-06
5.3799e-06
3.41474e-05
4.1386e-05
3.61549e-05
3.43143e-05
3.65082e-05
3.93335e-05
4.15938e-05
4.3473e-05
4.54274e-05
4.71311e-05
4.87049e-05
5.02938e-05
5.18455e-05
5.34571e-05
5.50559e-05
5.66017e-05
5.80279e-05
5.92794e-05
6.03648e-05
6.10661e-05
6.1457e-05
6.21107e-05
6.22859e-05
6.2464e-05
6.2591e-05
6.2667e-05
6.2609e-05
6.22614e-05
6.14243e-05
5.99449e-05
5.78668e-05
5.55558e-05
5.36114e-05
5.24522e-05
4.94605e-05
4.45445e-05
3.72959e-05
1.88291e-05
4.11987e-06
5.094e-06
3.32905e-05
4.09448e-05
3.64543e-05
3.51223e-05
3.73634e-05
4.00636e-05
4.21958e-05
4.40506e-05
4.59542e-05
4.7632e-05
4.92406e-05
5.08837e-05
5.25351e-05
5.42463e-05
5.59395e-05
5.75597e-05
5.90333e-05
6.02976e-05
6.13057e-05
6.194e-05
6.2274e-05
6.27373e-05
6.27826e-05
6.28352e-05
6.29208e-05
6.30694e-05
6.32254e-05
6.32293e-05
6.28228e-05
6.17246e-05
5.98054e-05
5.7317e-05
5.49303e-05
5.32213e-05
5.12436e-05
4.58075e-05
3.96282e-05
2.10884e-05
4.54758e-06
4.76764e-06
3.22397e-05
4.03184e-05
3.67207e-05
3.57041e-05
3.79493e-05
4.05712e-05
4.26362e-05
4.44793e-05
4.63403e-05
4.8012e-05
4.96566e-05
5.13529e-05
5.30883e-05
5.48812e-05
5.66548e-05
5.83433e-05
5.9866e-05
6.11481e-05
6.21273e-05
6.268e-05
6.29488e-05
6.3212e-05
6.30978e-05
6.29758e-05
6.29487e-05
6.30904e-05
6.33876e-05
6.37051e-05
6.37565e-05
6.31447e-05
6.1527e-05
5.89372e-05
5.60828e-05
5.40285e-05
5.28372e-05
4.71633e-05
4.15767e-05
2.32627e-05
4.97199e-06
4.37684e-06
3.1177e-05
3.9561e-05
3.69038e-05
3.61105e-05
3.83243e-05
4.08997e-05
4.29376e-05
4.47742e-05
4.66028e-05
4.82773e-05
4.99471e-05
5.16826e-05
5.34809e-05
5.53379e-05
5.71801e-05
5.89342e-05
6.05134e-05
6.18304e-05
6.28096e-05
6.32975e-05
6.35011e-05
6.3579e-05
6.3301e-05
6.29814e-05
6.27896e-05
6.28509e-05
6.32008e-05
6.37543e-05
6.42383e-05
6.41913e-05
6.30863e-05
6.06612e-05
5.74188e-05
5.46887e-05
5.34318e-05
4.85211e-05
4.31777e-05
2.5351e-05
5.39235e-06
3.99662e-06
2.99478e-05
3.87047e-05
3.69976e-05
3.6341e-05
3.85073e-05
4.10756e-05
4.3123e-05
4.49611e-05
4.67563e-05
4.84257e-05
5.011e-05
5.18708e-05
5.37055e-05
5.55997e-05
5.74887e-05
5.92974e-05
6.09315e-05
6.22897e-05
6.32826e-05
6.37374e-05
6.38815e-05
6.38134e-05
6.33918e-05
6.28817e-05
6.2507e-05
6.24476e-05
6.27803e-05
6.3488e-05
6.43374e-05
6.48422e-05
6.43346e-05
6.22596e-05
5.88175e-05
5.54091e-05
5.36416e-05
4.99403e-05
4.4546e-05
2.72817e-05
5.80921e-06
3.54723e-06
2.89893e-05
3.77606e-05
3.69638e-05
3.64863e-05
3.8561e-05
4.11135e-05
4.3186e-05
4.50194e-05
4.67923e-05
4.84629e-05
5.01319e-05
5.18704e-05
5.37029e-05
5.56136e-05
5.75395e-05
5.9388e-05
6.10551e-05
6.24358e-05
6.34352e-05
6.38882e-05
6.39638e-05
6.36995e-05
6.31182e-05
6.2493e-05
6.20554e-05
6.1923e-05
6.21949e-05
6.29892e-05
6.41328e-05
6.51525e-05
6.52955e-05
6.37416e-05
6.03021e-05
5.62588e-05
5.36913e-05
5.10383e-05
4.57465e-05
2.91664e-05
6.22491e-06
3.17982e-06
2.75981e-05
3.6836e-05
3.68598e-05
3.64883e-05
3.84407e-05
4.10165e-05
4.31454e-05
4.50041e-05
4.67398e-05
4.83607e-05
5.0018e-05
5.17789e-05
5.36139e-05
5.54959e-05
5.73413e-05
5.91096e-05
6.07345e-05
6.21115e-05
6.31273e-05
6.36579e-05
6.37266e-05
6.33451e-05
6.27162e-05
6.19784e-05
6.13464e-05
6.10307e-05
6.13161e-05
6.23286e-05
6.37016e-05
6.51717e-05
6.59508e-05
6.50064e-05
6.17575e-05
5.72479e-05
5.39986e-05
5.18422e-05
4.68323e-05
3.08801e-05
6.63477e-06
2.86496e-06
2.60128e-05
3.53893e-05
3.68638e-05
3.646e-05
3.8196e-05
4.07862e-05
4.29659e-05
4.48073e-05
4.65361e-05
4.81985e-05
4.97706e-05
5.13038e-05
5.29626e-05
5.47332e-05
5.65937e-05
5.84289e-05
6.01076e-05
6.15104e-05
6.25239e-05
6.3063e-05
6.31489e-05
6.288e-05
6.23368e-05
6.15989e-05
6.08346e-05
6.03612e-05
6.05135e-05
6.13386e-05
6.29377e-05
6.4949e-05
6.63511e-05
6.60563e-05
6.31288e-05
5.82456e-05
5.44251e-05
5.23698e-05
4.78493e-05
3.25307e-05
7.04247e-06
2.58438e-06
2.43051e-05
3.37779e-05
3.68135e-05
3.64097e-05
3.7968e-05
4.03101e-05
4.26875e-05
4.46306e-05
4.63071e-05
4.77512e-05
4.92493e-05
5.09179e-05
5.26016e-05
5.43066e-05
5.6044e-05
5.77437e-05
5.9304e-05
6.06156e-05
6.15766e-05
6.2109e-05
6.21539e-05
6.19025e-05
6.14073e-05
6.0725e-05
6.01664e-05
5.98994e-05
6.0024e-05
6.0655e-05
6.23049e-05
6.44934e-05
6.64564e-05
6.69381e-05
6.4424e-05
5.91996e-05
5.48491e-05
5.27969e-05
4.87242e-05
3.40895e-05
7.44094e-06
2.32825e-06
2.2505e-05
3.18413e-05
3.66133e-05
3.63733e-05
3.7619e-05
3.99838e-05
4.20864e-05
4.40702e-05
4.57646e-05
4.7356e-05
4.88954e-05
5.04178e-05
5.19568e-05
5.35086e-05
5.50564e-05
5.65771e-05
5.79871e-05
5.9191e-05
6.01003e-05
6.06476e-05
6.07635e-05
6.05728e-05
6.01657e-05
5.95726e-05
5.90282e-05
5.87377e-05
5.89849e-05
6.01062e-05
6.19143e-05
6.41738e-05
6.64709e-05
6.74596e-05
6.55282e-05
6.00106e-05
5.51798e-05
5.30244e-05
4.95238e-05
3.55899e-05
7.83271e-06
2.0871e-06
2.06433e-05
2.99702e-05
3.61938e-05
3.61655e-05
3.71582e-05
3.94638e-05
4.17278e-05
4.35697e-05
4.53081e-05
4.69036e-05
4.82715e-05
4.96114e-05
5.1002e-05
5.2437e-05
5.38656e-05
5.52363e-05
5.64992e-05
5.75834e-05
5.84184e-05
5.89543e-05
5.91298e-05
5.90067e-05
5.87186e-05
5.82859e-05
5.78881e-05
5.77217e-05
5.80081e-05
5.89892e-05
6.091e-05
6.37272e-05
6.64336e-05
6.7718e-05
6.61875e-05
6.07871e-05
5.53887e-05
5.31171e-05
5.02788e-05
3.69917e-05
8.21053e-06
1.85814e-06
1.87672e-05
2.81349e-05
3.51759e-05
3.63626e-05
3.67981e-05
3.86556e-05
4.11221e-05
4.31129e-05
4.47926e-05
4.62012e-05
4.754e-05
4.87964e-05
5.00437e-05
5.13068e-05
5.25615e-05
5.37664e-05
5.48756e-05
5.58348e-05
5.65902e-05
5.71075e-05
5.73634e-05
5.73134e-05
5.71592e-05
5.69218e-05
5.67095e-05
5.67137e-05
5.71423e-05
5.82495e-05
6.02504e-05
6.3105e-05
6.61705e-05
6.81e-05
6.69294e-05
6.12779e-05
5.54193e-05
5.30869e-05
5.09223e-05
3.83184e-05
8.57536e-06
1.63302e-06
1.68569e-05
2.62964e-05
3.34925e-05
3.63888e-05
3.66309e-05
3.80318e-05
4.02293e-05
4.23875e-05
4.40677e-05
4.54809e-05
4.67445e-05
4.79061e-05
4.9022e-05
5.01239e-05
5.12082e-05
5.22484e-05
5.32092e-05
5.405e-05
5.47322e-05
5.52259e-05
5.55775e-05
5.56011e-05
5.55838e-05
5.5556e-05
5.55457e-05
5.5742e-05
5.63285e-05
5.7547e-05
5.96311e-05
6.26278e-05
6.5872e-05
6.80216e-05
6.73539e-05
6.1522e-05
5.52874e-05
5.29202e-05
5.14527e-05
3.95312e-05
8.92077e-06
1.41234e-06
1.49808e-05
2.43476e-05
3.15699e-05
3.6267e-05
3.63872e-05
3.73991e-05
3.92584e-05
4.13869e-05
4.31766e-05
4.46486e-05
4.58828e-05
4.69698e-05
4.79738e-05
4.89351e-05
4.98657e-05
5.07556e-05
5.15829e-05
5.23197e-05
5.2944e-05
5.34128e-05
5.38703e-05
5.39642e-05
5.40784e-05
5.42596e-05
5.44519e-05
5.4847e-05
5.56026e-05
5.69475e-05
5.90935e-05
6.21324e-05
6.54497e-05
6.77454e-05
6.72633e-05
6.17572e-05
5.48355e-05
5.24116e-05
5.18844e-05
4.06514e-05
9.24755e-06
1.18554e-06
1.30965e-05
2.28078e-05
2.91324e-05
3.54759e-05
3.65315e-05
3.70253e-05
3.8451e-05
4.03318e-05
4.21689e-05
4.36915e-05
4.49312e-05
4.59763e-05
4.69009e-05
4.77549e-05
4.85639e-05
4.93324e-05
5.00526e-05
5.07071e-05
5.12946e-05
5.17429e-05
5.23113e-05
5.24695e-05
5.2704e-05
5.30822e-05
5.34647e-05
5.40504e-05
5.49676e-05
5.64331e-05
5.86103e-05
6.16224e-05
6.48609e-05
6.71189e-05
6.66608e-05
6.13451e-05
5.41392e-05
5.166e-05
5.21941e-05
4.16295e-05
9.55101e-06
9.78205e-07
1.15089e-05
2.14415e-05
2.67589e-05
3.34031e-05
3.64852e-05
3.6877e-05
3.7836e-05
3.94065e-05
4.11453e-05
4.26875e-05
4.3949e-05
4.49801e-05
4.58541e-05
4.66306e-05
4.73474e-05
4.80225e-05
4.86617e-05
4.9255e-05
4.98211e-05
5.02637e-05
5.09301e-05
5.11442e-05
5.1487e-05
5.20436e-05
5.25914e-05
5.3345e-05
5.43961e-05
5.59564e-05
5.8108e-05
6.09956e-05
6.39751e-05
6.60263e-05
6.53848e-05
6.04179e-05
5.32781e-05
5.04761e-05
5.23368e-05
4.24656e-05
9.83428e-06
8.0379e-07
1.01656e-05
2.04486e-05
2.47608e-05
3.10154e-05
3.58535e-05
3.6807e-05
3.75261e-05
3.86835e-05
4.01627e-05
4.16261e-05
4.28876e-05
4.39245e-05
4.47845e-05
4.5525e-05
4.61913e-05
4.68118e-05
4.74009e-05
4.79667e-05
4.85047e-05
4.90243e-05
4.96677e-05
4.99661e-05
5.04405e-05
5.11255e-05
5.17982e-05
5.2681e-05
5.38124e-05
5.5413e-05
5.74411e-05
6.00809e-05
6.25887e-05
6.42545e-05
6.32347e-05
5.861e-05
5.17247e-05
4.91102e-05
5.22518e-05
4.30527e-05
1.00979e-05
6.48555e-07
9.02025e-06
1.97692e-05
2.33246e-05
2.87146e-05
3.40617e-05
3.64541e-05
3.74598e-05
3.84221e-05
3.96037e-05
4.08715e-05
4.20429e-05
4.30383e-05
4.38654e-05
4.45674e-05
4.51877e-05
4.57653e-05
4.63046e-05
4.68674e-05
4.7335e-05
4.8013e-05
4.85066e-05
4.89026e-05
4.95274e-05
5.02524e-05
5.09932e-05
5.19449e-05
5.30651e-05
5.46093e-05
5.63587e-05
5.85931e-05
6.03946e-05
6.15202e-05
5.99987e-05
5.585e-05
4.97327e-05
4.76218e-05
5.18814e-05
4.32565e-05
1.03521e-05
5.08067e-07
8.19757e-06
1.92403e-05
2.28355e-05
2.69452e-05
3.2108e-05
3.57294e-05
3.72456e-05
3.83207e-05
3.93426e-05
4.03971e-05
4.14147e-05
4.23202e-05
4.30919e-05
4.37519e-05
4.43279e-05
4.4875e-05
4.5363e-05
4.59311e-05
4.63223e-05
4.70972e-05
4.74839e-05
4.79164e-05
4.85963e-05
4.93044e-05
5.00135e-05
5.09272e-05
5.1882e-05
5.32129e-05
5.44627e-05
5.61108e-05
5.6991e-05
5.74921e-05
5.54897e-05
5.20057e-05
4.71258e-05
4.62508e-05
5.11816e-05
4.27559e-05
1.06111e-05
4.37524e-07
7.99421e-06
1.84959e-05
2.29705e-05
2.53024e-05
3.01104e-05
3.45855e-05
3.72823e-05
3.86877e-05
3.97672e-05
4.0709e-05
4.15626e-05
4.23227e-05
4.29731e-05
4.35322e-05
4.40048e-05
4.44558e-05
4.48369e-05
4.53039e-05
4.56226e-05
4.62224e-05
4.66066e-05
4.69353e-05
4.745e-05
4.80406e-05
4.85445e-05
4.92391e-05
4.97982e-05
5.06983e-05
5.11987e-05
5.21097e-05
5.19772e-05
5.19294e-05
4.97186e-05
4.72605e-05
4.38474e-05
4.42875e-05
5.02292e-05
4.21924e-05
1.07603e-05
4.56953e-07
8.87079e-06
1.77079e-05
2.30138e-05
2.55355e-05
2.87044e-05
3.28009e-05
3.65754e-05
3.90724e-05
4.04384e-05
4.14262e-05
4.21841e-05
4.27802e-05
4.32629e-05
4.36539e-05
4.39813e-05
4.42877e-05
4.45569e-05
4.48217e-05
4.50258e-05
4.5194e-05
4.54702e-05
4.55413e-05
4.56671e-05
4.5911e-05
4.5979e-05
4.62162e-05
4.61391e-05
4.64019e-05
4.60314e-05
4.62211e-05
4.53033e-05
4.5052e-05
4.32325e-05
4.21976e-05
4.10431e-05
4.32181e-05
4.90745e-05
4.14989e-05
1.08138e-05
6.57438e-07
1.14442e-05
1.84105e-05
2.35081e-05
2.64682e-05
2.95821e-05
3.28618e-05
3.6264e-05
3.9499e-05
4.19876e-05
4.33381e-05
4.4233e-05
4.48352e-05
4.51928e-05
4.54611e-05
4.54742e-05
4.53049e-05
4.49971e-05
4.46457e-05
4.42098e-05
4.38035e-05
4.33235e-05
4.27916e-05
4.25231e-05
4.2152e-05
4.15668e-05
4.11946e-05
4.04761e-05
4.01352e-05
3.92298e-05
3.90818e-05
3.81059e-05
3.82809e-05
3.75853e-05
3.82736e-05
3.97278e-05
4.3021e-05
4.72426e-05
3.91906e-05
1.07212e-05
1.0735e-06
1.54866e-05
2.08597e-05
2.51361e-05
2.84896e-05
3.18384e-05
3.52803e-05
3.81484e-05
4.10578e-05
4.37372e-05
4.58715e-05
4.68816e-05
4.72694e-05
4.7151e-05
4.66378e-05
4.58846e-05
4.49356e-05
4.38507e-05
4.26927e-05
4.14563e-05
4.05316e-05
3.92222e-05
3.84028e-05
3.76591e-05
3.66183e-05
3.56812e-05
3.506e-05
3.43261e-05
3.39902e-05
3.34886e-05
3.37357e-05
3.36326e-05
3.47955e-05
3.54834e-05
3.79929e-05
4.02293e-05
4.47702e-05
4.49892e-05
3.72022e-05
1.03844e-05
1.77414e-06
1.99788e-05
2.35538e-05
2.79319e-05
3.17198e-05
3.50648e-05
3.81171e-05
4.04235e-05
4.15784e-05
4.29453e-05
4.40162e-05
4.43007e-05
4.41577e-05
4.36158e-05
4.28789e-05
4.1891e-05
4.08226e-05
3.97563e-05
3.86169e-05
3.73783e-05
3.64519e-05
3.55679e-05
3.45555e-05
3.38312e-05
3.32668e-05
3.29543e-05
3.28239e-05
3.29416e-05
3.34177e-05
3.39578e-05
3.50335e-05
3.60173e-05
3.80417e-05
3.95813e-05
4.27209e-05
4.47726e-05
4.70328e-05
4.30279e-05
3.35651e-05
9.74734e-06
2.9005e-06
2.34841e-05
2.64342e-05
3.10486e-05
3.43704e-05
3.68269e-05
3.86793e-05
3.9803e-05
4.01391e-05
4.05451e-05
4.0804e-05
4.08204e-05
4.07269e-05
4.03421e-05
4.01281e-05
3.94208e-05
3.91295e-05
3.87983e-05
3.83168e-05
3.80172e-05
3.77327e-05
3.76676e-05
3.76505e-05
3.78597e-05
3.81148e-05
3.86253e-05
3.91935e-05
3.99794e-05
4.09347e-05
4.18864e-05
4.33495e-05
4.43281e-05
4.63279e-05
4.68522e-05
4.94963e-05
4.82762e-05
4.66391e-05
4.04684e-05
2.53604e-05
8.49201e-06
1.96836e-06
3.01384e-06
3.89864e-06
4.79826e-06
5.62994e-06
6.38209e-06
7.03033e-06
7.54904e-06
7.91838e-06
8.14957e-06
8.29418e-06
8.33603e-06
8.31909e-06
8.26745e-06
8.17837e-06
8.05931e-06
7.9307e-06
7.80295e-06
7.67315e-06
7.55003e-06
7.43734e-06
7.33407e-06
7.25064e-06
7.17553e-06
7.12999e-06
7.08941e-06
7.08957e-06
7.10148e-06
7.13972e-06
7.19056e-06
7.29502e-06
7.40105e-06
7.63799e-06
7.82916e-06
8.25261e-06
8.53034e-06
9.00022e-06
9.04258e-06
8.73756e-06
7.29761e-06
)
;

boundaryField
{
    movingWall
    {
        type            nutkWallFunction;
        Cmu             0.09;
        kappa           0.41;
        E               9.8;
        value           uniform 0;
    }
    fixedWalls
    {
        type            nutkWallFunction;
        Cmu             0.09;
        kappa           0.41;
        E               9.8;
        value           uniform 0;
    }
    frontAndBack
    {
        type            empty;
    }
}


// ************************************************************************* //
