/*--------------------------------*- C++ -*----------------------------------*\
  =========                 |
  \\      /  F ield         | OpenFOAM: The Open Source CFD Toolbox
   \\    /   O peration     | Website:  https://openfoam.org
    \\  /    A nd           | Version:  12
     \\/     M anipulation  |
\*---------------------------------------------------------------------------*/
FoamFile
{
    format      ascii;
    class       volScalarField;
    location    "10";
    object      p;
}
// * * * * * * * * * * * * * * * * * * * * * * * * * * * * * * * * * * * * * //

dimensions      [0 2 -2 0 0 0 0];

internalField   nonuniform List<scalar> 
1600
(
6.50126e-09
-2.89949e-05
-0.000121726
-0.000248778
-0.000362795
-0.000449779
-0.000529245
-0.000638412
-0.000786038
-0.000972253
-0.00120876
-0.00156228
-0.00198848
-0.00214993
-0.00241582
-0.00307025
-0.00401414
-0.00507345
-0.00607273
-0.00687558
-0.0073835
-0.00753043
-0.00725919
-0.00652564
-0.00536835
-0.00380589
-0.00184987
0.000430043
0.00290675
0.00535312
0.00748226
0.0089791
0.00962284
0.00938555
0.00836034
0.00730038
0.00663595
0.00652267
0.00663125
0.00668338
-2.03761e-05
-7.67474e-05
-0.00017964
-0.000300729
-0.000382864
-0.000423238
-0.000462939
-0.000546362
-0.000679363
-0.000830478
-0.000978048
-0.00122486
-0.00167939
-0.00224954
-0.00291068
-0.00375548
-0.00475795
-0.00581115
-0.00677997
-0.00755028
-0.00803496
-0.00817744
-0.00793538
-0.00729136
-0.00622121
-0.00472518
-0.00284716
-0.000648631
0.00174078
0.00413992
0.00628679
0.00787898
0.00867445
0.00859479
0.00777214
0.00673808
0.00621671
0.00628796
0.00647587
0.00656573
-5.30151e-05
-0.000156724
-0.000288446
-0.000401629
-0.000442765
-0.000424543
-0.000410907
-0.000435198
-0.000528781
-0.000753905
-0.00113314
-0.00164272
-0.00230839
-0.00313487
-0.00409839
-0.00514411
-0.00621762
-0.00724396
-0.00814182
-0.00884045
-0.0092771
-0.00939683
-0.00916684
-0.00857171
-0.00758823
-0.0062151
-0.00448404
-0.00244983
-0.00020696
0.0021022
0.00426335
0.00602671
0.00714339
0.00746868
0.007098
0.00643884
0.00610098
0.00615907
0.00633621
0.00639568
-6.24605e-05
-0.000214437
-0.000385631
-0.000484294
-0.000480213
-0.000429457
-0.000410586
-0.000473879
-0.000678667
-0.00111252
-0.00180056
-0.00267403
-0.00365956
-0.00473156
-0.00586578
-0.00700467
-0.00809198
-0.00907479
-0.00990756
-0.0105446
-0.0109338
-0.0110262
-0.0107981
-0.0102412
-0.00934285
-0.00810633
-0.00655345
-0.00472399
-0.00268085
-0.000518569
0.00161277
0.00352266
0.00499377
0.00587624
0.00619876
0.00616645
0.00616443
0.00619766
0.00627776
0.00627802
7.94341e-05
-0.000142483
-0.000334138
-0.000432096
-0.000444036
-0.0004366
-0.000505021
-0.000741998
-0.00122649
-0.00199885
-0.00302119
-0.004194
-0.00542848
-0.00667565
-0.00789985
-0.00906705
-0.010144
-0.0111006
-0.0118929
-0.0124722
-0.0128018
-0.0128653
-0.0126453
-0.0121332
-0.0113228
-0.0102196
-0.00883803
-0.00720381
-0.00536076
-0.00337789
-0.00135039
0.000602643
0.00235229
0.00378863
0.00486379
0.00560769
0.00609267
0.00632003
0.0062758
0.0062043
0.000444042
0.000141645
-7.79185e-05
-0.000220656
-0.000320279
-0.000464183
-0.000765986
-0.00132459
-0.0021835
-0.00331061
-0.00461719
-0.00600339
-0.00739713
-0.0087472
-0.0100238
-0.0112048
-0.0122592
-0.0131561
-0.013865
-0.0143674
-0.0146453
-0.0146879
-0.0144869
-0.0140203
-0.0132971
-0.0123226
-0.0111066
-0.00966531
-0.00802409
-0.00622197
-0.00431432
-0.00237257
-0.000470206
0.00135092
0.00304628
0.00452118
0.00561324
0.00622992
0.00621488
0.00609108
0.0010006
0.000639025
0.000356496
0.000112983
-0.000163377
-0.000581205
-0.00124415
-0.0022073
-0.00344645
-0.00487925
-0.00640189
-0.00793395
-0.00941867
-0.0108147
-0.0120974
-0.0132459
-0.0142416
-0.0150674
-0.0157072
-0.0161506
-0.0163875
-0.0164111
-0.0162155
-0.0157927
-0.0151448
-0.0142781
-0.0132015
-0.0119269
-0.0104694
-0.00884827
-0.00708822
-0.00521706
-0.0032565
-0.00121705
0.000873387
0.00291098
0.00463601
0.00575698
0.00614221
0.00591306
0.00166847
0.0012638
0.000861219
0.000454453
-8.47562e-05
-0.00086657
-0.00194948
-0.00331564
-0.00488521
-0.00655203
-0.00822579
-0.00984584
-0.0113678
-0.0127637
-0.0140168
-0.0151147
-0.0160491
-0.0168121
-0.0173957
-0.0177937
-0.0180001
-0.0180107
-0.0178223
-0.0174334
-0.0168459
-0.016065
-0.0150986
-0.0139559
-0.0126463
-0.0111785
-0.00955939
-0.00779021
-0.00586121
-0.00375072
-0.00145399
0.000944341
0.00319565
0.00492967
0.00587414
0.00555307
0.0022615
0.00177328
0.0012499
0.000645735
-0.000206305
-0.00138119
-0.00286315
-0.00457462
-0.00639645
-0.00822596
-0.00999397
-0.0116548
-0.0131779
-0.0145481
-0.0157578
-0.0168032
-0.0176824
-0.0183927
-0.018931
-0.0192941
-0.019479
-0.019483
-0.0193048
-0.0189449
-0.018406
-0.0176932
-0.0168132
-0.0157737
-0.0145809
-0.0132379
-0.0117416
-0.0100793
-0.00822554
-0.00614126
-0.00378884
-0.0011988
0.00142738
0.00370984
0.00516009
0.00525507
0.00259485
0.00203529
0.00138027
0.000558261
-0.000610201
-0.00214454
-0.00395579
-0.0059206
-0.00791378
-0.00984293
-0.0116571
-0.0133237
-0.0148258
-0.0161589
-0.0173228
-0.0183198
-0.019152
-0.0198201
-0.0203238
-0.0206618
-0.0208326
-0.0208352
-0.0206689
-0.020335
-0.0198364
-0.0191776
-0.0183649
-0.0174048
-0.0163026
-0.0150594
-0.0136686
-0.0121121
-0.0103582
-0.00835926
-0.00605474
-0.00342151
-0.000608545
0.00202793
0.00403081
0.00510098
0.0025561
0.00193972
0.00115921
0.000131417
-0.00131605
-0.00313194
-0.00518101
-0.00730603
-0.00939755
-0.0113718
-0.0131937
-0.0148416
-0.0163101
-0.017602
-0.0187225
-0.0196777
-0.0204718
-0.0211076
-0.0215861
-0.0219073
-0.0220706
-0.0220756
-0.0219225
-0.0216125
-0.0211482
-0.0205338
-0.0197747
-0.018877
-0.0178455
-0.0166815
-0.0153789
-0.0139204
-0.0122747
-0.0103943
-0.00821104
-0.00565907
-0.00281838
-4.03871e-05
0.00234959
0.00398664
0.00211593
0.00145526
0.000567868
-0.000629829
-0.00228559
-0.00429444
-0.00648091
-0.00869198
-0.0108188
-0.0127948
-0.0145961
-0.0162096
-0.017638
-0.0188887
-0.0199701
-0.0208901
-0.0216542
-0.0222658
-0.0227267
-0.0230374
-0.0231979
-0.0232081
-0.0230687
-0.0227807
-0.0223465
-0.0217698
-0.0210552
-0.0202084
-0.0192342
-0.0181352
-0.0169078
-0.0155384
-0.0140002
-0.0122504
-0.0102265
-0.00784458
-0.00509706
-0.00234166
9.78473e-05
0.00182275
0.00130312
0.000618777
-0.000343059
-0.00166558
-0.00344866
-0.00556383
-0.00780392
-0.010038
-0.0121534
-0.0141006
-0.0158624
-0.0174324
-0.0188184
-0.02003
-0.021077
-0.0219679
-0.0227083
-0.0233018
-0.0237503
-0.0240548
-0.0242155
-0.0242326
-0.0241067
-0.0238391
-0.0234318
-0.0228879
-0.0222116
-0.021408
-0.0204824
-0.0194386
-0.0182767
-0.0169886
-0.015554
-0.0139378
-0.0120876
-0.00992321
-0.0073833
-0.00474358
-0.00248185
-0.000904167
0.000203406
-0.000480921
-0.00148199
-0.00287953
-0.0047242
-0.00686506
-0.00910068
-0.0113101
-0.0133822
-0.0152809
-0.0169923
-0.0185151
-0.019859
-0.0210344
-0.0220514
-0.0229179
-0.0236394
-0.0242191
-0.0246589
-0.0249598
-0.0251223
-0.0251467
-0.0250338
-0.0247849
-0.0244017
-0.023887
-0.0232445
-0.0224789
-0.021596
-0.0206011
-0.0194977
-0.0182835
-0.0169463
-0.0154603
-0.0137832
-0.0118517
-0.00959327
-0.00713907
-0.00514901
-0.0038134
-0.00106592
-0.00173494
-0.00274607
-0.00416869
-0.00601787
-0.00812897
-0.0103268
-0.0124792
-0.0144893
-0.0163288
-0.0179855
-0.0194608
-0.0207647
-0.0219073
-0.0228981
-0.0237441
-0.02445
-0.0250188
-0.0254521
-0.025751
-0.025916
-0.0259476
-0.0258467
-0.0256146
-0.0252529
-0.0247642
-0.0241518
-0.0234203
-0.0225757
-0.0216247
-0.0205739
-0.0194266
-0.0181786
-0.0168139
-0.015302
-0.0135963
-0.0116297
-0.0094385
-0.00771219
-0.00661386
-0.00238951
-0.00302894
-0.00402884
-0.00543782
-0.00725267
-0.00930403
-0.0114407
-0.0135206
-0.0154613
-0.0172384
-0.0188408
-0.0202709
-0.021538
-0.0226514
-0.0236194
-0.0244478
-0.0251408
-0.0257007
-0.0261291
-0.0264266
-0.0265941
-0.0266322
-0.026542
-0.0263246
-0.0259819
-0.025516
-0.0249303
-0.0242293
-0.023419
-0.0225076
-0.021504
-0.0204163
-0.0192477
-0.0179918
-0.0166278
-0.0151201
-0.0134202
-0.0115571
-0.0100719
-0.00914506
-0.00365859
-0.00426173
-0.00523366
-0.00660948
-0.00836904
-0.0103476
-0.0124114
-0.0144148
-0.0162866
-0.0180038
-0.0195557
-0.0209449
-0.0221794
-0.0232674
-0.0242157
-0.0250293
-0.0257115
-0.0262641
-0.0266884
-0.0269851
-0.0271548
-0.0271985
-0.0271172
-0.0269123
-0.0265855
-0.0261392
-0.0255766
-0.0249021
-0.0241221
-0.0232455
-0.0222833
-0.0212478
-0.0201485
-0.0189871
-0.0177507
-0.0164107
-0.01494
-0.013382
-0.0121207
-0.0113312
-0.0047917
-0.0053497
-0.00628376
-0.00762007
-0.00932016
-0.0112255
-0.0132158
-0.015147
-0.0169559
-0.0186194
-0.0201271
-0.0214811
-0.0226879
-0.0237544
-0.0246864
-0.0254879
-0.0261612
-0.026708
-0.0271291
-0.0274251
-0.0275967
-0.0276449
-0.0275707
-0.0273756
-0.0270616
-0.026631
-0.0260873
-0.0254348
-0.0246803
-0.0238332
-0.0229061
-0.0219143
-0.0208727
-0.01979
-0.0186605
-0.0174627
-0.0161869
-0.014885
-0.0138197
-0.0131361
-0.00572229
-0.00624136
-0.00713087
-0.00842545
-0.0100704
-0.0119126
-0.0138373
-0.015706
-0.0174612
-0.0190799
-0.0205514
-0.0218769
-0.0230615
-0.0241112
-0.0250304
-0.0258225
-0.0264892
-0.0270317
-0.0274504
-0.027746
-0.0279191
-0.0279704
-0.0279013
-0.0277133
-0.0274085
-0.0269895
-0.0264599
-0.0258242
-0.0250895
-0.0242656
-0.0233663
-0.0224092
-0.0214132
-0.0203928
-0.0193495
-0.0182704
-0.0171542
-0.0160449
-0.0151465
-0.0145524
-0.00642156
-0.00689101
-0.00774261
-0.00900191
-0.0105999
-0.0123925
-0.0142645
-0.0160831
-0.0177964
-0.0193807
-0.0208251
-0.0221294
-0.023298
-0.0243357
-0.0252462
-0.026032
-0.0266946
-0.0272344
-0.027652
-0.0279476
-0.0281217
-0.028175
-0.0281089
-0.027925
-0.0276256
-0.0272136
-0.0266926
-0.0260677
-0.0253461
-0.0245381
-0.0236584
-0.022726
-0.0217629
-0.0207885
-0.0198111
-0.0188265
-0.017837
-0.0168775
-0.0161101
-0.0155852
-0.00685922
-0.00728585
-0.00811257
-0.00934313
-0.0109004
-0.0126577
-0.0144905
-0.0162726
-0.0179568
-0.019518
-0.0209446
-0.0222357
-0.0233949
-0.024426
-0.0253322
-0.0261153
-0.0267765
-0.0273159
-0.0277337
-0.0280299
-0.0282048
-0.028259
-0.0281939
-0.0280111
-0.027713
-0.0273029
-0.0267846
-0.0261638
-0.0254478
-0.0246473
-0.0237778
-0.0228593
-0.0219163
-0.0209719
-0.0200407
-0.0191263
-0.0182339
-0.0173862
-0.0167191
-0.0162473
-0.00701409
-0.00742359
-0.00824242
-0.00945399
-0.0109768
-0.0127072
-0.0145116
-0.0162716
-0.0179391
-0.0194882
-0.0209067
-0.0221929
-0.0233496
-0.02438
-0.0252867
-0.0260713
-0.0267344
-0.027276
-0.0276957
-0.0279934
-0.0281691
-0.0282233
-0.0281572
-0.0279724
-0.0276715
-0.0272578
-0.0267358
-0.0261114
-0.0253926
-0.0245907
-0.0237212
-0.0228047
-0.0218688
-0.0209389
-0.0200348
-0.0191678
-0.0183484
-0.017586
-0.0169944
-0.0165523
-0.00692222
-0.00732172
-0.00813959
-0.00934223
-0.0108396
-0.0125458
-0.014335
-0.0160831
-0.0177435
-0.0192896
-0.0207087
-0.0219981
-0.0231594
-0.0241954
-0.0251082
-0.0258989
-0.0265678
-0.0271144
-0.0275383
-0.0278388
-0.0280157
-0.0280692
-0.0280004
-0.0278107
-0.0275027
-0.0270799
-0.0265472
-0.025911
-0.0251799
-0.024366
-0.0234855
-0.0225603
-0.0216179
-0.0206868
-0.0197911
-0.0189497
-0.0181807
-0.0174751
-0.0169457
-0.0165133
-0.00662872
-0.00701687
-0.00783291
-0.00903196
-0.010509
-0.0121848
-0.0139648
-0.0157088
-0.0173694
-0.0189204
-0.020348
-0.0216482
-0.0228215
-0.0238698
-0.0247947
-0.0255968
-0.0262759
-0.0268314
-0.0272621
-0.0275672
-0.0277461
-0.0277986
-0.0277254
-0.0275279
-0.0272087
-0.0267713
-0.026221
-0.0255644
-0.0248112
-0.0239741
-0.0230705
-0.0221236
-0.0211615
-0.0202141
-0.0193097
-0.0184755
-0.0177384
-0.0170623
-0.0165914
-0.0161412
-0.00618299
-0.00655757
-0.00736435
-0.00855245
-0.0100108
-0.0116513
-0.013408
-0.0151507
-0.0168167
-0.0183786
-0.0198215
-0.0211398
-0.0223326
-0.0234005
-0.0243442
-0.0251638
-0.0258585
-0.0264271
-0.026868
-0.02718
-0.027362
-0.0274134
-0.0273346
-0.0271268
-0.0267923
-0.0263347
-0.0257596
-0.0250741
-0.0242885
-0.0234166
-0.0224774
-0.0214951
-0.0204993
-0.0195212
-0.0185929
-0.0177513
-0.0170285
-0.0163498
-0.0159359
-0.0154633
-0.00565058
-0.0060052
-0.00678577
-0.00794213
-0.00936644
-0.0109683
-0.0126845
-0.014417
-0.0160871
-0.0176624
-0.0191258
-0.0204691
-0.021689
-0.0227844
-0.0237546
-0.0245986
-0.025315
-0.0259019
-0.0263572
-0.026679
-0.0268659
-0.0269167
-0.0268314
-0.0266108
-0.0262571
-0.025774
-0.0251668
-0.0244435
-0.0236151
-0.0226968
-0.0217088
-0.0206773
-0.0196333
-0.0186098
-0.0176433
-0.0167805
-0.0160575
-0.0153551
-0.0149999
-0.0144959
-0.00511269
-0.00543143
-0.00615376
-0.00724472
-0.00860478
-0.0101494
-0.0118119
-0.0135167
-0.0151827
-0.0167702
-0.0182574
-0.0196318
-0.0208867
-0.022018
-0.0230231
-0.0238996
-0.0246449
-0.0252562
-0.0257309
-0.0260664
-0.0262606
-0.0263119
-0.0262196
-0.0259844
-0.0256081
-0.0250941
-0.0244481
-0.0236782
-0.0227966
-0.0218197
-0.02077
-0.0196752
-0.0185685
-0.0174843
-0.0164647
-0.0155645
-0.0148196
-0.0140917
-0.0138165
-0.0132607
-0.0046542
-0.00490335
-0.0055188
-0.00650148
-0.00776065
-0.00921492
-0.0108028
-0.0124583
-0.0141064
-0.0157007
-0.0172126
-0.0186235
-0.0199212
-0.0210976
-0.0221472
-0.0230653
-0.0238479
-0.0244911
-0.0249912
-0.025345
-0.0255498
-0.0256033
-0.0255044
-0.0252533
-0.0248514
-0.024302
-0.0236107
-0.0227862
-0.0218413
-0.0207944
-0.0196698
-0.0184977
-0.0173134
-0.0161539
-0.0150655
-0.0141103
-0.0133257
-0.0125565
-0.0124022
-0.0117497
-0.00433659
-0.00446222
-0.00491621
-0.00574818
-0.00686809
-0.00819188
-0.00967053
-0.0112496
-0.0128612
-0.0144533
-0.0159887
-0.0174402
-0.0187885
-0.0200199
-0.0211245
-0.0220947
-0.0229242
-0.0236078
-0.0241406
-0.0245186
-0.0247382
-0.0247967
-0.0246923
-0.0244248
-0.0239953
-0.0234068
-0.0226647
-0.0217784
-0.0207615
-0.0196338
-0.0184222
-0.0171592
-0.0158829
-0.0146328
-0.01346
-0.0124317
-0.011587
-0.0107568
-0.0107458
-0.00991699
-0.00415118
-0.00409007
-0.00436511
-0.0050167
-0.0059551
-0.00710392
-0.008432
-0.00990177
-0.0114535
-0.0130303
-0.0145851
-0.0160801
-0.0174866
-0.0187832
-0.0199542
-0.0209881
-0.0218756
-0.0226094
-0.0231833
-0.0235924
-0.0238322
-0.0238996
-0.0237922
-0.0235089
-0.0230509
-0.0224209
-0.0216244
-0.0206707
-0.0195747
-0.0183575
-0.0170483
-0.015682
-0.0142998
-0.0129441
-0.0116714
-0.0105513
-0.00962738
-0.00872894
-0.00881105
-0.00768062
-0.00394004
-0.00373563
-0.00388122
-0.00433153
-0.00504149
-0.00596862
-0.0071044
-0.00842994
-0.00989509
-0.01144
-0.0130073
-0.0145469
-0.0160181
-0.01739
-0.0186393
-0.019749
-0.0207063
-0.0215013
-0.022126
-0.0225743
-0.0228411
-0.0229225
-0.0228161
-0.0225192
-0.0220337
-0.021362
-0.0205094
-0.0194856
-0.0183062
-0.0169936
-0.0155787
-0.0140988
-0.012598
-0.0111219
-0.00973271
-0.0085013
-0.00748007
-0.00650148
-0.00657036
-0.00497758
-0.00362363
-0.00342998
-0.00348008
-0.0037028
-0.00414029
-0.00480113
-0.00570487
-0.00685247
-0.00820483
-0.00970017
-0.0112709
-0.0128537
-0.0143944
-0.0158504
-0.0171892
-0.0183871
-0.0194264
-0.020294
-0.0209799
-0.0214766
-0.0217781
-0.02188
-0.021779
-0.0214744
-0.0209649
-0.020254
-0.0193473
-0.0182544
-0.0169915
-0.0155816
-0.0140569
-0.0124558
-0.0108253
-0.00921396
-0.00769082
-0.00632582
-0.00517992
-0.00407839
-0.00402832
-0.0018312
-0.00335282
-0.00322386
-0.00316502
-0.00313607
-0.00326299
-0.00361637
-0.00425262
-0.00519415
-0.00641198
-0.00784206
-0.00940683
-0.0110294
-0.0126416
-0.014188
-0.0156256
-0.0169223
-0.0180549
-0.0190062
-0.0197638
-0.0203185
-0.0206638
-0.0207947
-0.0207079
-0.0204015
-0.0198742
-0.0191305
-0.0181762
-0.0170206
-0.0156795
-0.0141758
-0.0125419
-0.0108159
-0.00904642
-0.00728439
-0.00560542
-0.00407541
-0.00276075
-0.00146646
-0.00117024
0.00164826
-0.00315675
-0.00309443
-0.00291652
-0.00263003
-0.00241752
-0.00242862
-0.00276947
-0.00348675
-0.00455816
-0.00591411
-0.00746609
-0.00912427
-0.0108071
-0.0124464
-0.0139879
-0.0153909
-0.0166253
-0.0176696
-0.0185083
-0.0191304
-0.0195285
-0.0196975
-0.0196342
-0.0193375
-0.0188026
-0.0180376
-0.0170476
-0.0158414
-0.014434
-0.0128466
-0.0111097
-0.00925842
-0.00734162
-0.00540864
-0.00353951
-0.00178962
-0.000231544
0.0013574
0.0020248
0.00544172
-0.00295731
-0.002979
-0.00268596
-0.00215242
-0.00159076
-0.00124771
-0.00128624
-0.00177637
-0.00270091
-0.00398324
-0.00552169
-0.00721315
-0.00896391
-0.0106943
-0.0123399
-0.0138511
-0.0151912
-0.0163337
-0.0172599
-0.0179571
-0.0184165
-0.0186326
-0.0186017
-0.0183228
-0.0178006
-0.0170315
-0.0160232
-0.0147848
-0.0133295
-0.0116743
-0.00984531
-0.00787071
-0.00579538
-0.00365902
-0.00153913
0.000531556
0.00247333
0.004534
0.00576247
0.00993865
-0.00269259
-0.00277923
-0.00241025
-0.00164821
-0.000757066
-8.56695e-05
0.00015418
-0.000128996
-0.000921162
-0.00213857
-0.003668
-0.00539356
-0.00720953
-0.00902625
-0.0107707
-0.0123859
-0.0138291
-0.0150693
-0.0160847
-0.0168607
-0.0173876
-0.0176593
-0.017673
-0.0174282
-0.016927
-0.0161698
-0.0151629
-0.0139135
-0.0124317
-0.0107272
-0.00881945
-0.00672304
-0.00447167
-0.00208034
0.000391873
0.00296104
0.00555325
0.00845368
0.0107557
0.016512
-0.0023655
-0.00245935
-0.00201632
-0.00107
9.47479e-05
0.0010216
0.00147906
0.00135965
0.000672693
-0.000492952
-0.00201558
-0.0037706
-0.00564355
-0.0075363
-0.00936846
-0.0110775
-0.0126159
-0.0139483
-0.01505
-0.0159047
-0.0165018
-0.0168345
-0.0169001
-0.0166977
-0.0162291
-0.0154961
-0.014504
-0.0132586
-0.0117665
-0.0100292
-0.00805565
-0.00583928
-0.00339191
-0.000678858
0.00228542
0.00562546
0.00931065
0.0138207
0.0185504
0.0279796
-0.00212884
-0.00218327
-0.00158561
-0.000439656
0.000900259
0.0020249
0.00261587
0.0026002
0.00198312
0.000851307
-0.00067228
-0.00245907
-0.00438617
-0.00634741
-0.00825567
-0.0100439
-0.0116624
-0.0130723
-0.0142472
-0.0151697
-0.0158286
-0.0162166
-0.0163307
-0.0161702
-0.0157372
-0.0150329
-0.0140595
-0.0128167
-0.0113158
-0.00955364
-0.00752426
-0.00519599
-0.00254941
0.000531147
0.00411107
0.00853412
0.0139027
0.0214014
0.0310894
0.0474794
-0.00307441
-0.00252173
-0.0014351
4.00936e-05
0.00158544
0.00281921
0.00348896
0.0035248
0.002944
0.00183604
0.000321202
-0.00147592
-0.00343327
-0.00544117
-0.00740742
-0.00925983
-0.0109439
-0.0124182
-0.0136539
-0.0146328
-0.0153418
-0.0157748
-0.0159279
-0.0158009
-0.0153945
-0.0147109
-0.0137526
-0.0125209
-0.0110153
-0.00922583
-0.00714982
-0.00474744
-0.00194617
0.00141976
0.00561239
0.0112523
0.0189873
0.0312706
0.0489903
0.0754532
-0.00516687
-0.00162668
4.09077e-06
0.00143859
0.00285413
0.00398626
0.00458331
0.00454937
0.00391041
0.00276163
0.00121831
-0.000603888
-0.00259278
-0.00464269
-0.00666141
-0.00857255
-0.0103154
-0.0118471
-0.0131378
-0.014166
-0.014919
-0.0153891
-0.0155741
-0.0154727
-0.0150872
-0.0144178
-0.0134678
-0.0122357
-0.0107199
-0.00892693
-0.00682258
-0.00445097
-0.00151173
0.00187585
0.00658803
0.0131007
0.0240649
0.0420722
0.0695626
0.104997
)
;

boundaryField
{
    movingWall
    {
        type            zeroGradient;
    }
    fixedWalls
    {
        type            zeroGradient;
    }
    frontAndBack
    {
        type            empty;
    }
}


// ************************************************************************* //
