/*--------------------------------*- C++ -*----------------------------------*\
  =========                 |
  \\      /  F ield         | OpenFOAM: The Open Source CFD Toolbox
   \\    /   O peration     | Website:  https://openfoam.org
    \\  /    A nd           | Version:  12
     \\/     M anipulation  |
\*---------------------------------------------------------------------------*/
FoamFile
{
    format      ascii;
    class       surfaceScalarField;
    location    "10";
    object      phi;
}
// * * * * * * * * * * * * * * * * * * * * * * * * * * * * * * * * * * * * * //

dimensions      [0 3 -1 0 0 0 0];

internalField   nonuniform List<scalar> 
3120
(
1.00987e-07
-1.00988e-07
2.45542e-07
-1.44555e-07
3.49857e-07
-1.04314e-07
3.83106e-07
-3.32492e-08
3.69763e-07
1.33428e-08
3.47466e-07
2.22966e-08
3.39031e-07
8.43531e-09
3.33632e-07
5.3991e-09
3.09326e-07
2.4306e-08
2.48355e-07
6.09714e-08
1.27131e-07
1.21224e-07
-1.02595e-07
2.29726e-07
-4.62106e-07
3.5951e-07
-9.84137e-07
5.22031e-07
-1.5936e-06
6.09463e-07
-2.18319e-06
5.8959e-07
-2.71338e-06
5.30195e-07
-3.16545e-06
4.52071e-07
-3.53923e-06
3.7378e-07
-3.83506e-06
2.95821e-07
-4.05561e-06
2.20559e-07
-4.20173e-06
1.46111e-07
-4.27577e-06
7.40479e-08
-4.27306e-06
-2.71159e-09
-4.19447e-06
-7.85923e-08
-4.04059e-06
-1.53879e-07
-3.79702e-06
-2.43571e-07
-3.46576e-06
-3.31264e-07
-3.03877e-06
-4.26985e-07
-2.51781e-06
-5.20961e-07
-1.90442e-06
-6.13388e-07
-1.22457e-06
-6.79852e-07
-5.3021e-07
-6.94359e-07
1.02379e-07
-6.3259e-07
5.9946e-07
-4.97081e-07
8.04533e-07
-2.05073e-07
6.8933e-07
1.15203e-07
4.48146e-07
2.41184e-07
1.89526e-07
2.5862e-07
1.89526e-07
1.7997e-07
-2.80958e-07
3.71595e-07
-3.3618e-07
4.87178e-07
-2.19898e-07
5.17571e-07
-6.36422e-08
4.80276e-07
5.06375e-08
4.01347e-07
1.01226e-07
2.91131e-07
1.18651e-07
1.23047e-07
1.73483e-07
-1.48207e-07
2.9556e-07
-5.69e-07
4.81764e-07
-1.16383e-06
7.1605e-07
-1.88915e-06
9.55053e-07
-2.64453e-06
1.11488e-06
-3.28723e-06
1.16473e-06
-3.79029e-06
1.11253e-06
-4.22397e-06
1.02327e-06
-4.59084e-06
8.97058e-07
-4.89629e-06
7.57527e-07
-5.13701e-06
6.14502e-07
-5.31589e-06
4.74693e-07
-5.43257e-06
3.37244e-07
-5.49213e-06
2.05667e-07
-5.49055e-06
7.24757e-08
-5.43206e-06
-6.12079e-08
-5.31178e-06
-1.98867e-07
-5.12263e-06
-3.43034e-07
-4.86599e-06
-5.00215e-07
-4.52853e-06
-6.68724e-07
-4.10332e-06
-8.5219e-07
-3.58816e-06
-1.03613e-06
-2.98862e-06
-1.21292e-06
-2.31196e-06
-1.35651e-06
-1.58718e-06
-1.41914e-06
-8.55454e-07
-1.36432e-06
-2.28482e-07
-1.12405e-06
2.35543e-07
-6.69098e-07
3.89336e-07
-3.85902e-08
3.22514e-07
3.08006e-07
1.51763e-07
4.29371e-07
3.41289e-07
2.14396e-07
-4.95354e-07
3.61079e-07
-4.82863e-07
4.09547e-07
-2.68367e-07
3.77948e-07
-3.20434e-08
2.77122e-07
1.51464e-07
9.89018e-08
2.79446e-07
-1.96863e-07
4.14416e-07
-6.44571e-07
6.21191e-07
-1.25662e-06
9.0761e-07
-1.99014e-06
1.21528e-06
-2.73777e-06
1.46368e-06
-3.38734e-06
1.60462e-06
-3.91884e-06
1.64639e-06
-4.34533e-06
1.59122e-06
-4.69793e-06
1.46513e-06
-4.98192e-06
1.30725e-06
-5.21379e-06
1.12893e-06
-5.40052e-06
9.44258e-07
-5.54515e-06
7.59134e-07
-5.64928e-06
5.78823e-07
-5.71578e-06
4.03739e-07
-5.7409e-06
2.30785e-07
-5.72207e-06
5.36464e-08
-5.66324e-06
-1.20034e-07
-5.56184e-06
-3.00268e-07
-5.41336e-06
-4.91513e-07
-5.21591e-06
-6.97668e-07
-4.9638e-06
-9.20829e-07
-4.65149e-06
-1.1645e-06
-4.26387e-06
-1.42375e-06
-3.79141e-06
-1.68538e-06
-3.2252e-06
-1.92272e-06
-2.5722e-06
-2.07215e-06
-1.86099e-06
-2.07552e-06
-1.13749e-06
-1.84756e-06
-4.90032e-07
-1.31655e-06
-7.61958e-08
-4.52426e-07
3.41372e-08
1.97673e-07
2.32989e-08
4.40209e-07
3.64588e-07
1.75208e-07
-6.70562e-07
2.3e-07
-5.37654e-07
1.81425e-07
-2.19792e-07
5.14239e-08
9.79576e-08
-1.69647e-07
3.72535e-07
-5.19523e-07
6.29322e-07
-1.02646e-06
9.21352e-07
-1.67451e-06
1.26924e-06
-2.39319e-06
1.62629e-06
-3.08499e-06
1.90709e-06
-3.67073e-06
2.04941e-06
-4.13374e-06
2.06763e-06
-4.48874e-06
2.00139e-06
-4.76454e-06
1.86702e-06
-4.98927e-06
1.68986e-06
-5.16897e-06
1.48695e-06
-5.31529e-06
1.27525e-06
-5.43513e-06
1.0641e-06
-5.53142e-06
8.55421e-07
-5.59925e-06
6.46659e-07
-5.6389e-06
4.43389e-07
-5.64758e-06
2.39465e-07
-5.62552e-06
3.15844e-08
-5.57557e-06
-1.69982e-07
-5.49496e-06
-3.80886e-07
-5.38115e-06
-6.05315e-07
-5.23247e-06
-8.46348e-07
-5.04561e-06
-1.10769e-06
-4.81956e-06
-1.39055e-06
-4.54952e-06
-1.69378e-06
-4.22886e-06
-2.00604e-06
-3.84013e-06
-2.31145e-06
-3.34025e-06
-2.57203e-06
-2.71603e-06
-2.69974e-06
-1.97986e-06
-2.58372e-06
-1.18816e-06
-2.10826e-06
-4.61322e-07
-1.17927e-06
-1.37789e-07
-1.2586e-07
-3.05986e-08
3.33018e-07
3.3399e-07
7.87126e-08
-7.49274e-07
1.53064e-08
-4.74248e-07
-1.43099e-07
-6.13865e-08
-3.89177e-07
3.44036e-07
-7.48342e-07
7.31699e-07
-1.24311e-06
1.12409e-06
-1.86169e-06
1.53993e-06
-2.53869e-06
1.94624e-06
-3.17773e-06
2.26533e-06
-3.70234e-06
2.4317e-06
-4.10545e-06
2.45253e-06
-4.41627e-06
2.37845e-06
-4.65132e-06
2.23644e-06
-4.83286e-06
2.04856e-06
-4.97799e-06
1.83499e-06
-5.09718e-06
1.60614e-06
-5.19272e-06
1.37079e-06
-5.26137e-06
1.13276e-06
-5.304e-06
8.9805e-07
-5.32574e-06
6.68394e-07
-5.32826e-06
4.45914e-07
-5.31447e-06
2.25677e-07
-5.28466e-06
1.76725e-09
-5.23735e-06
-2.17291e-07
-5.17056e-06
-4.47675e-07
-5.08499e-06
-6.9088e-07
-4.98025e-06
-9.51092e-07
-4.85508e-06
-1.23286e-06
-4.70641e-06
-1.53922e-06
-4.52951e-06
-1.87068e-06
-4.31491e-06
-2.22064e-06
-4.05472e-06
-2.57165e-06
-3.7295e-06
-2.89725e-06
-3.29095e-06
-3.13829e-06
-2.6792e-06
-3.19547e-06
-1.88308e-06
-2.90438e-06
-9.34218e-07
-2.12813e-06
-2.23988e-07
-8.3609e-07
-1.64275e-08
1.25458e-07
3.17562e-07
-5.93208e-08
-6.89953e-07
-2.39502e-07
-2.94067e-07
-5.02092e-07
2.01203e-07
-8.58575e-07
7.00519e-07
-1.326e-06
1.19912e-06
-1.8962e-06
1.6943e-06
-2.518e-06
2.16172e-06
-3.10919e-06
2.53744e-06
-3.59559e-06
2.75172e-06
-3.95897e-06
2.79509e-06
-4.2322e-06
2.72576e-06
-4.43714e-06
2.5834e-06
-4.58903e-06
2.38833e-06
-4.70244e-06
2.16197e-06
-4.78376e-06
1.91631e-06
-4.83924e-06
1.66161e-06
-4.87373e-06
1.40528e-06
-4.89327e-06
1.1523e-06
-4.90164e-06
9.06414e-07
-4.89983e-06
6.66592e-07
-4.88597e-06
4.32053e-07
-4.86022e-06
1.9992e-07
-4.82604e-06
-3.24039e-08
-4.77712e-06
-2.66212e-07
-4.71729e-06
-5.07507e-07
-4.64758e-06
-7.60594e-07
-4.56887e-06
-1.0298e-06
-4.48206e-06
-1.31967e-06
-4.38702e-06
-1.63426e-06
-4.2818e-06
-1.9759e-06
-4.15966e-06
-2.34279e-06
-4.00607e-06
-2.72523e-06
-3.8038e-06
-3.09952e-06
-3.52266e-06
-3.41944e-06
-3.10346e-06
-3.61466e-06
-2.45504e-06
-3.5528e-06
-1.53157e-06
-3.0516e-06
-4.96305e-07
-1.87135e-06
-3.29299e-08
-3.37917e-07
2.84632e-07
-1.88577e-07
-5.01377e-07
-4.85593e-07
2.94916e-09
-8.40327e-07
5.55938e-07
-1.28287e-06
1.14306e-06
-1.8077e-06
1.72395e-06
-2.37749e-06
2.26409e-06
-2.92802e-06
2.71225e-06
-3.38932e-06
2.99874e-06
-3.7289e-06
3.0913e-06
-3.97398e-06
3.04017e-06
-4.15252e-06
2.90429e-06
-4.2772e-06
2.70807e-06
-4.36223e-06
2.47335e-06
-4.41701e-06
2.21675e-06
-4.44932e-06
1.94862e-06
-4.46617e-06
1.67847e-06
-4.4724e-06
1.4115e-06
-4.47097e-06
1.15087e-06
-4.4621e-06
8.97546e-07
-4.44586e-06
6.50352e-07
-4.42177e-06
4.07961e-07
-4.3898e-06
1.67949e-07
-4.35046e-06
-7.17451e-08
-4.3025e-06
-3.14167e-07
-4.24704e-06
-5.62973e-07
-4.1857e-06
-8.21929e-07
-4.12029e-06
-1.09521e-06
-4.05283e-06
-1.38713e-06
-3.98505e-06
-1.70204e-06
-3.91745e-06
-2.0435e-06
-3.84739e-06
-2.41286e-06
-3.76653e-06
-2.80609e-06
-3.65739e-06
-3.20866e-06
-3.48814e-06
-3.58869e-06
-3.21549e-06
-3.88731e-06
-2.76304e-06
-4.00526e-06
-2.03901e-06
-3.77563e-06
-9.58299e-07
-2.95206e-06
-1.16616e-07
-1.1796e-06
1.68017e-07
-3.04167e-07
-1.9721e-07
-6.79484e-07
3.78266e-07
-1.11401e-06
9.90459e-07
-1.60536e-06
1.63441e-06
-2.13385e-06
2.25245e-06
-2.65355e-06
2.7838e-06
-3.10344e-06
3.16214e-06
-3.4378e-06
3.33309e-06
-3.66857e-06
3.32207e-06
-3.83071e-06
3.20231e-06
-3.93961e-06
3.0132e-06
-4.00763e-06
2.77609e-06
-4.04674e-06
2.51247e-06
-4.06523e-06
2.23524e-06
-4.07062e-06
1.95401e-06
-4.06789e-06
1.67574e-06
-4.05985e-06
1.40345e-06
-4.04752e-06
1.13855e-06
-4.03064e-06
8.8066e-07
-4.00881e-06
6.2852e-07
-3.9814e-06
3.80557e-07
-3.94801e-06
1.34557e-07
-3.90824e-06
-1.11514e-07
-3.86202e-06
-3.60382e-07
-3.81004e-06
-6.1496e-07
-3.7537e-06
-8.78265e-07
-3.69515e-06
-1.15377e-06
-3.63702e-06
-1.44526e-06
-3.58207e-06
-1.75698e-06
-3.5323e-06
-2.09326e-06
-3.48753e-06
-2.45763e-06
-3.44307e-06
-2.85055e-06
-3.38626e-06
-3.26546e-06
-3.29197e-06
-3.68297e-06
-3.11878e-06
-4.0605e-06
-2.8085e-06
-4.31553e-06
-2.28059e-06
-4.30355e-06
-1.43517e-06
-3.79747e-06
-3.37416e-07
-2.27736e-06
-1.694e-07
-3.80244e-07
1.83034e-07
-8.24394e-07
8.22417e-07
-1.29822e-06
1.46429e-06
-1.79763e-06
2.13382e-06
-2.29595e-06
2.75077e-06
-2.74665e-06
3.23449e-06
-3.09228e-06
3.50777e-06
-3.32696e-06
3.56778e-06
-3.48447e-06
3.47958e-06
-3.58814e-06
3.30597e-06
-3.64962e-06
3.07467e-06
-3.68141e-06
2.80789e-06
-3.69335e-06
2.52441e-06
-3.69285e-06
2.23474e-06
-3.68567e-06
1.94683e-06
-3.6748e-06
1.66487e-06
-3.66159e-06
1.39024e-06
-3.64614e-06
1.1231e-06
-3.62786e-06
8.62382e-07
-3.60595e-06
6.06607e-07
-3.57948e-06
3.54093e-07
-3.54772e-06
1.02798e-07
-3.51002e-06
-1.49217e-07
-3.4663e-06
-4.04101e-07
-3.41706e-06
-6.64199e-07
-3.36349e-06
-9.31838e-07
-3.30759e-06
-1.20967e-06
-3.25214e-06
-1.50071e-06
-3.20047e-06
-1.80865e-06
-3.15583e-06
-2.1379e-06
-3.12009e-06
-2.49337e-06
-3.0915e-06
-2.87915e-06
-3.06142e-06
-3.29554e-06
-3.01051e-06
-3.73389e-06
-2.90422e-06
-4.1668e-06
-2.69266e-06
-4.52709e-06
-2.32324e-06
-4.67297e-06
-1.71204e-06
-4.40867e-06
-6.36666e-07
-3.35273e-06
-8.06066e-07
-4.25061e-07
6.08095e-07
-9.03428e-07
1.30078e-06
-1.38835e-06
1.94921e-06
-1.87064e-06
2.61611e-06
-2.3233e-06
3.20343e-06
-2.69234e-06
3.60353e-06
-2.9477e-06
3.76312e-06
-3.11638e-06
3.73647e-06
-3.22475e-06
3.58795e-06
-3.28926e-06
3.37049e-06
-3.32146e-06
3.10686e-06
-3.33281e-06
2.81924e-06
-3.33143e-06
2.52303e-06
-3.3234e-06
2.22671e-06
-3.31254e-06
1.93597e-06
-3.30049e-06
1.65281e-06
-3.28768e-06
1.37744e-06
-3.27366e-06
1.10908e-06
-3.25753e-06
8.46254e-07
-3.23826e-06
5.87337e-07
-3.2148e-06
3.30635e-07
-3.1863e-06
7.43004e-08
-3.15206e-06
-1.83463e-07
-3.11184e-06
-4.4432e-07
-3.0659e-06
-7.10141e-07
-3.01506e-06
-9.82674e-07
-2.9609e-06
-1.26383e-06
-2.90578e-06
-1.55583e-06
-2.85291e-06
-1.86152e-06
-2.80594e-06
-2.18487e-06
-2.76813e-06
-2.53119e-06
-2.74034e-06
-2.90693e-06
-2.71815e-06
-3.31773e-06
-2.68808e-06
-3.76396e-06
-2.62255e-06
-4.23232e-06
-2.47353e-06
-4.67611e-06
-2.19215e-06
-4.95435e-06
-1.71142e-06
-4.8894e-06
-9.11273e-07
-4.15288e-06
-1.71734e-06
-4.42094e-07
1.05019e-06
-9.24055e-07
1.78275e-06
-1.39582e-06
2.42097e-06
-1.84419e-06
3.06448e-06
-2.23961e-06
3.59885e-06
-2.52831e-06
3.89223e-06
-2.72285e-06
3.95766e-06
-2.84765e-06
3.86126e-06
-2.92329e-06
3.66359e-06
-2.96366e-06
3.41086e-06
-2.97985e-06
3.12306e-06
-2.98183e-06
2.82121e-06
-2.97614e-06
2.51734e-06
-2.96733e-06
2.2179e-06
-2.95776e-06
1.92639e-06
-2.94815e-06
1.64321e-06
-2.93836e-06
1.36765e-06
-2.9276e-06
1.09831e-06
-2.91486e-06
8.33513e-07
-2.89907e-06
5.71549e-07
-2.87922e-06
3.10784e-07
-2.8545e-06
4.95875e-08
-2.8243e-06
-2.13668e-07
-2.78825e-06
-4.80369e-07
-2.7464e-06
-7.51989e-07
-2.6992e-06
-1.02987e-06
-2.64767e-06
-1.31536e-06
-2.59355e-06
-1.60994e-06
-2.53943e-06
-1.91564e-06
-2.48869e-06
-2.23561e-06
-2.44499e-06
-2.57489e-06
-2.41094e-06
-2.94099e-06
-2.38546e-06
-3.3432e-06
-2.36038e-06
-3.78904e-06
-2.31563e-06
-4.27707e-06
-2.20992e-06
-4.78182e-06
-1.97706e-06
-5.18721e-06
-1.58662e-06
-5.27984e-06
-9.66025e-07
-4.77347e-06
-2.68336e-06
-4.31052e-07
1.48124e-06
-8.95161e-07
2.24685e-06
-1.3368e-06
2.86261e-06
-1.7423e-06
3.46998e-06
-2.07301e-06
3.92956e-06
-2.3011e-06
4.12032e-06
-2.45454e-06
4.11111e-06
-2.54855e-06
3.95527e-06
-2.60335e-06
3.71839e-06
-2.63015e-06
3.43765e-06
-2.63924e-06
3.13215e-06
-2.63875e-06
2.82073e-06
-2.63382e-06
2.51241e-06
-2.62764e-06
2.21172e-06
-2.62152e-06
1.92027e-06
-2.61563e-06
1.63733e-06
-2.60948e-06
1.3615e-06
-2.60218e-06
1.09101e-06
-2.59276e-06
8.24099e-07
-2.58029e-06
5.59078e-07
-2.56391e-06
2.94405e-07
-2.54295e-06
2.86239e-08
-2.5169e-06
-2.39723e-07
-2.48536e-06
-5.11903e-07
-2.44822e-06
-7.89127e-07
-2.4056e-06
-1.0725e-06
-2.35799e-06
-1.36297e-06
-2.30644e-06
-1.6615e-06
-2.25272e-06
-1.96936e-06
-2.19954e-06
-2.28879e-06
-2.15037e-06
-2.62407e-06
-2.10863e-06
-2.98272e-06
-2.07573e-06
-3.37611e-06
-2.04761e-06
-3.81716e-06
-2.01077e-06
-4.3139e-06
-1.93481e-06
-4.85779e-06
-1.74406e-06
-5.37796e-06
-1.42167e-06
-5.60224e-06
-8.6574e-07
-5.3294e-06
-3.5491e-06
-3.99383e-07
1.88062e-06
-8.29855e-07
2.67733e-06
-1.2314e-06
3.26415e-06
-1.58801e-06
3.82659e-06
-1.85552e-06
4.19708e-06
-2.04133e-06
4.30612e-06
-2.16324e-06
4.23303e-06
-2.23734e-06
4.02936e-06
-2.27957e-06
3.76063e-06
-2.29975e-06
3.45784e-06
-2.30703e-06
3.13942e-06
-2.30779e-06
2.82149e-06
-2.30591e-06
2.51052e-06
-2.30352e-06
2.20934e-06
-2.30127e-06
1.91802e-06
-2.299e-06
1.63505e-06
-2.29608e-06
1.35858e-06
-2.29171e-06
1.08664e-06
-2.28507e-06
8.17467e-07
-2.27545e-06
5.49449e-07
-2.26219e-06
2.81149e-07
-2.24478e-06
1.12164e-08
-2.22284e-06
-2.61667e-07
-2.196e-06
-5.38744e-07
-2.16402e-06
-8.21108e-07
-2.12677e-06
-1.10974e-06
-2.08433e-06
-1.40541e-06
-2.03712e-06
-1.70871e-06
-1.98612e-06
-2.02036e-06
-1.93316e-06
-2.34174e-06
-1.88108e-06
-2.67615e-06
-1.8334e-06
-3.0304e-06
-1.79295e-06
-3.41656e-06
-1.75861e-06
-3.8515e-06
-1.72138e-06
-4.35112e-06
-1.65909e-06
-4.92008e-06
-1.51431e-06
-5.52274e-06
-1.23209e-06
-5.88445e-06
-7.59919e-07
-5.80158e-06
-4.30902e-06
-3.53738e-07
2.23436e-06
-7.40442e-07
3.06403e-06
-1.09487e-06
3.61857e-06
-1.39735e-06
4.12908e-06
-1.61208e-06
4.4118e-06
-1.76569e-06
4.45974e-06
-1.86487e-06
4.33221e-06
-1.92553e-06
4.09002e-06
-1.96041e-06
3.79551e-06
-1.97808e-06
3.4755e-06
-1.98623e-06
3.14757e-06
-1.98974e-06
2.825e-06
-1.99145e-06
2.51223e-06
-1.99273e-06
2.21062e-06
-1.99383e-06
1.91912e-06
-1.99445e-06
1.63567e-06
-1.99401e-06
1.35814e-06
-1.99188e-06
1.08451e-06
-1.98745e-06
8.13038e-07
-1.98022e-06
5.42221e-07
-1.96977e-06
2.70703e-07
-1.95574e-06
-2.81531e-09
-1.93785e-06
-2.7956e-07
-1.91578e-06
-5.60812e-07
-1.88924e-06
-8.47654e-07
-1.85792e-06
-1.14106e-06
-1.82158e-06
-1.44175e-06
-1.78016e-06
-1.75013e-06
-1.73398e-06
-2.06654e-06
-1.68406e-06
-2.39166e-06
-1.63247e-06
-2.72773e-06
-1.58238e-06
-3.08049e-06
-1.53729e-06
-3.46166e-06
-1.49848e-06
-3.89031e-06
-1.4608e-06
-4.38881e-06
-1.40809e-06
-4.97278e-06
-1.30088e-06
-5.62995e-06
-1.04804e-06
-6.13729e-06
-6.46934e-07
-6.20268e-06
-4.95596e-06
-3.00606e-07
2.53497e-06
-6.34793e-07
3.39822e-06
-9.37877e-07
3.92166e-06
-1.18589e-06
4.37709e-06
-1.36127e-06
4.58718e-06
-1.48797e-06
4.58644e-06
-1.56891e-06
4.41314e-06
-1.61979e-06
4.1409e-06
-1.65023e-06
3.82595e-06
-1.66736e-06
3.49264e-06
-1.67733e-06
3.15754e-06
-1.68372e-06
2.83139e-06
-1.6886e-06
2.5171e-06
-1.69279e-06
2.21482e-06
-1.69636e-06
1.9227e-06
-1.69902e-06
1.63833e-06
-1.70032e-06
1.35944e-06
-1.69983e-06
1.08401e-06
-1.69717e-06
8.10376e-07
-1.69204e-06
5.3709e-07
-1.6842e-06
2.6286e-07
-1.67344e-06
-1.35729e-08
-1.65954e-06
-2.93454e-07
-1.64228e-06
-5.78072e-07
-1.62134e-06
-8.686e-07
-1.59631e-06
-1.16609e-06
-1.56676e-06
-1.4713e-06
-1.53224e-06
-1.78465e-06
-1.49256e-06
-2.10621e-06
-1.4481e-06
-2.43612e-06
-1.40018e-06
-2.77566e-06
-1.35141e-06
-3.12926e-06
-1.30543e-06
-3.50764e-06
-1.26493e-06
-3.93081e-06
-1.22721e-06
-4.42654e-06
-1.18048e-06
-5.01951e-06
-1.09858e-06
-5.71186e-06
-8.9025e-07
-6.34561e-06
-5.5604e-07
-6.53689e-06
-5.512e-06
-2.40177e-07
2.77515e-06
-5.19392e-07
3.67743e-06
-7.71569e-07
4.17383e-06
-9.69438e-07
4.57496e-06
-1.11127e-06
4.72901e-06
-1.21315e-06
4.68833e-06
-1.27983e-06
4.47982e-06
-1.32324e-06
4.18431e-06
-1.35065e-06
3.85336e-06
-1.36786e-06
3.50985e-06
-1.37953e-06
3.16921e-06
-1.38822e-06
2.84008e-06
-1.39538e-06
2.52426e-06
-1.40153e-06
2.22096e-06
-1.40667e-06
1.92784e-06
-1.4106e-06
1.64226e-06
-1.41305e-06
1.36189e-06
-1.41377e-06
1.08474e-06
-1.4126e-06
8.092e-07
-1.40939e-06
5.33885e-07
-1.40406e-06
2.57525e-07
-1.3965e-06
-2.11339e-08
-1.38658e-06
-3.03367e-07
-1.37414e-06
-5.90513e-07
-1.35888e-06
-8.83864e-07
-1.34037e-06
-1.1846e-06
-1.31804e-06
-1.49363e-06
-1.29124e-06
-1.81146e-06
-1.25939e-06
-2.13806e-06
-1.22233e-06
-2.47318e-06
-1.18076e-06
-2.81723e-06
-1.13675e-06
-3.17326e-06
-1.09389e-06
-3.55051e-06
-1.0559e-06
-3.9688e-06
-1.02254e-06
-4.45989e-06
-9.8553e-07
-5.05652e-06
-9.25172e-07
-5.77222e-06
-7.56459e-07
-6.51432e-06
-4.66492e-07
-6.82686e-06
-5.97849e-06
-1.80448e-07
2.95559e-06
-4.01821e-07
3.8988e-06
-6.02524e-07
4.37454e-06
-7.5417e-07
4.7266e-06
-8.65188e-07
4.84003e-06
-9.4527e-07
4.76841e-06
-9.99702e-07
4.53425e-06
-1.03676e-06
4.22136e-06
-1.06161e-06
3.87822e-06
-1.07873e-06
3.52696e-06
-1.09144e-06
3.18192e-06
-1.10154e-06
2.85018e-06
-1.11e-06
2.53273e-06
-1.11717e-06
2.22814e-06
-1.12309e-06
1.93375e-06
-1.12767e-06
1.64684e-06
-1.13082e-06
1.36504e-06
-1.13248e-06
1.0864e-06
-1.13263e-06
8.09349e-07
-1.13127e-06
5.32525e-07
-1.12841e-06
2.54661e-07
-1.12403e-06
-2.55119e-08
-1.11809e-06
-3.09311e-07
-1.11046e-06
-5.98139e-07
-1.10091e-06
-8.93414e-07
-1.08903e-06
-1.19648e-06
-1.07423e-06
-1.50843e-06
-1.05573e-06
-1.82996e-06
-1.0327e-06
-2.16109e-06
-1.00458e-06
-2.5013e-06
-9.71541e-07
-2.85027e-06
-9.35052e-07
-3.20975e-06
-8.98324e-07
-3.58723e-06
-8.65697e-07
-4.00143e-06
-8.39291e-07
-4.4863e-06
-8.13003e-07
-5.0828e-06
-7.67698e-07
-5.81752e-06
-6.47591e-07
-6.63443e-06
-4.06371e-07
-7.06808e-06
-6.38486e-06
-1.15912e-07
3.07151e-06
-2.82752e-07
4.06564e-06
-4.33099e-07
4.52488e-06
-5.42964e-07
4.83647e-06
-6.25758e-07
4.92283e-06
-6.85935e-07
4.82858e-06
-7.28987e-07
4.5773e-06
-7.59964e-07
4.25234e-06
-7.82112e-07
3.90037e-06
-7.98543e-07
3.54339e-06
-8.11468e-07
3.19485e-06
-8.22025e-07
2.86074e-06
-8.30867e-07
2.54157e-06
-8.38257e-07
2.23553e-06
-8.44302e-07
1.9398e-06
-8.4906e-07
1.6516e-06
-8.52598e-07
1.36858e-06
-8.55004e-07
1.08881e-06
-8.5638e-07
8.10725e-07
-8.56829e-07
5.32974e-07
-8.56435e-07
2.54267e-07
-8.55252e-07
-2.66946e-08
-8.53288e-07
-3.11275e-07
-8.50483e-07
-6.00944e-07
-8.4666e-07
-8.97237e-07
-8.41479e-07
-1.20166e-06
-8.34381e-07
-1.51553e-06
-8.24569e-07
-1.83977e-06
-8.11096e-07
-2.17456e-06
-7.93126e-07
-2.51927e-06
-7.70413e-07
-2.87298e-06
-7.43919e-07
-3.23624e-06
-7.16424e-07
-3.61473e-06
-6.92448e-07
-4.0254e-06
-6.75752e-07
-4.503e-06
-6.62401e-07
-5.09615e-06
-6.34131e-07
-5.84579e-06
-5.49398e-07
-6.71916e-06
-3.48656e-07
-7.26882e-06
-6.73352e-06
-5.85187e-08
3.13002e-06
-1.6664e-07
4.17377e-06
-2.66254e-07
4.6245e-06
-3.37752e-07
4.90796e-06
-3.93806e-07
4.97888e-06
-4.35011e-07
4.86979e-06
-4.67001e-07
4.60929e-06
-4.9172e-07
4.27706e-06
-5.10675e-07
3.91932e-06
-5.25681e-07
3.5584e-06
-5.37955e-07
3.20712e-06
-5.48104e-07
2.87089e-06
-5.56536e-07
2.55e-06
-5.63487e-07
2.24248e-06
-5.69149e-07
1.94546e-06
-5.73716e-07
1.65617e-06
-5.77394e-07
1.37226e-06
-5.80394e-07
1.09181e-06
-5.82918e-07
8.13249e-07
-5.85146e-07
5.35203e-07
-5.87225e-07
2.56346e-07
-5.89257e-07
-2.46623e-08
-5.91297e-07
-3.09236e-07
-5.93338e-07
-5.98903e-07
-5.95273e-07
-8.95301e-07
-5.96841e-07
-1.20009e-06
-5.97568e-07
-1.51481e-06
-5.96715e-07
-1.84063e-06
-5.93316e-07
-2.17796e-06
-5.86382e-07
-2.5262e-06
-5.75341e-07
-2.88402e-06
-5.60701e-07
-3.25088e-06
-5.44778e-07
-3.63065e-06
-5.31979e-07
-4.0382e-06
-5.26966e-07
-4.50801e-06
-5.27894e-07
-5.09523e-06
-5.20112e-07
-5.85358e-06
-4.6861e-07
-6.77066e-06
-3.06786e-07
-7.43065e-06
-7.0403e-06
5.04737e-09
3.12498e-06
-4.93623e-08
4.22817e-06
-1.02846e-07
4.67798e-06
-1.39595e-07
4.94471e-06
-1.69092e-07
5.00838e-06
-1.92052e-07
4.89275e-06
-2.12611e-07
4.62985e-06
-2.30492e-07
4.29494e-06
-2.4561e-07
3.93444e-06
-2.58436e-07
3.57123e-06
-2.6928e-07
3.21797e-06
-2.78287e-07
2.87989e-06
-2.85672e-07
2.55738e-06
-2.91657e-07
2.24846e-06
-2.96522e-07
1.95032e-06
-3.00588e-07
1.66024e-06
-3.04184e-07
1.37585e-06
-3.0763e-07
1.09525e-06
-3.11212e-07
8.16832e-07
-3.15175e-07
5.39166e-07
-3.19716e-07
2.60887e-07
-3.24981e-07
-1.93974e-08
-3.31062e-07
-3.03154e-07
-3.37997e-07
-5.91968e-07
-3.45739e-07
-8.8756e-07
-3.54112e-07
-1.19171e-06
-3.62759e-07
-1.50616e-06
-3.71063e-07
-1.83232e-06
-3.78126e-07
-2.1709e-06
-3.82915e-07
-2.52142e-06
-3.84644e-07
-2.88229e-06
-3.83432e-07
-3.25209e-06
-3.81114e-07
-3.63297e-06
-3.81784e-07
-4.03753e-06
-3.90533e-07
-4.49926e-06
-4.07446e-07
-5.07831e-06
-4.2003e-07
-5.84099e-06
-3.96382e-07
-6.79431e-06
-2.67349e-07
-7.55968e-06
-7.30765e-06
6.45182e-08
3.06046e-06
6.54029e-08
4.22729e-06
5.558e-08
4.68781e-06
5.18282e-08
4.94847e-06
4.91941e-08
5.01101e-06
4.38704e-08
4.89807e-06
3.5508e-08
4.63821e-06
2.5202e-08
4.30524e-06
1.47014e-08
3.94494e-06
4.86184e-09
3.58107e-06
-3.82714e-09
3.22666e-06
-1.10959e-08
2.88716e-06
-1.69198e-08
2.56321e-06
-2.15145e-08
2.25306e-06
-2.52431e-08
1.95405e-06
-2.85376e-08
1.66353e-06
-3.18414e-08
1.37916e-06
-3.55701e-08
1.09898e-06
-4.00895e-08
8.21351e-07
-4.5706e-08
5.44782e-07
-5.26663e-08
2.67847e-07
-6.11611e-08
-1.09026e-08
-7.13169e-08
-2.92998e-07
-8.32066e-08
-5.80078e-07
-9.68327e-08
-8.73934e-07
-1.12103e-07
-1.17644e-06
-1.28774e-07
-1.48949e-06
-1.46379e-07
-1.81472e-06
-1.64171e-07
-2.1531e-06
-1.81201e-07
-2.50439e-06
-1.9658e-07
-2.86691e-06
-2.10005e-07
-3.23867e-06
-2.22906e-07
-3.62007e-06
-2.38927e-07
-4.02151e-06
-2.63302e-07
-4.47488e-06
-2.97801e-07
-5.04381e-06
-3.318e-07
-5.80699e-06
-3.36361e-07
-6.78975e-06
-2.37489e-07
-7.65855e-06
-7.54514e-06
1.24345e-07
2.93611e-06
1.78455e-07
4.17318e-06
2.11597e-07
4.65466e-06
2.41952e-07
4.91811e-06
2.66859e-07
4.9861e-06
2.79219e-07
4.88571e-06
2.80993e-07
4.63644e-06
2.77926e-07
4.30831e-06
2.72289e-07
3.95058e-06
2.65852e-07
3.5875e-06
2.59808e-07
3.2327e-06
2.54813e-07
2.89216e-06
2.50999e-07
2.56702e-06
2.48164e-07
2.25589e-06
2.45885e-07
1.95633e-06
2.43632e-07
1.66578e-06
2.40858e-07
1.38193e-06
2.37053e-07
1.10279e-06
2.31772e-07
8.26633e-07
2.24641e-07
5.51913e-07
2.15362e-07
2.77126e-07
2.03692e-07
7.6814e-10
1.89479e-07
-2.78785e-07
1.72601e-07
-5.63201e-07
1.53002e-07
-8.54335e-07
1.30704e-07
-1.15415e-06
1.05854e-07
-1.46464e-06
7.87721e-08
-1.78763e-06
5.00195e-08
-2.12435e-06
2.04458e-08
-2.47481e-06
-9.11396e-09
-2.83736e-06
-3.84467e-08
-3.20934e-06
-6.81071e-08
-3.59041e-06
-1.01221e-07
-3.9884e-06
-1.42966e-07
-4.43314e-06
-1.96117e-07
-4.99066e-06
-2.50858e-07
-5.75225e-06
-2.8109e-07
-6.75952e-06
-2.09956e-07
-7.72969e-06
-7.7551e-06
1.84574e-07
2.75154e-06
2.90399e-07
4.06736e-06
3.63357e-07
4.58171e-06
4.24841e-07
4.85663e-06
4.76317e-07
4.93463e-06
5.08937e-07
4.85309e-06
5.22581e-07
4.62279e-06
5.27973e-07
4.30292e-06
5.28178e-07
3.95037e-06
5.25942e-07
3.58974e-06
5.23158e-07
3.23548e-06
5.20877e-07
2.89444e-06
5.19446e-07
2.56845e-06
5.18706e-07
2.25663e-06
5.18184e-07
1.95685e-06
5.17261e-07
1.66671e-06
5.15288e-07
1.3839e-06
5.11659e-07
1.10641e-06
5.05843e-07
8.32449e-07
4.97396e-07
5.60359e-07
4.85956e-07
2.88567e-07
4.71242e-07
1.54814e-08
4.53029e-07
-2.60572e-07
4.31165e-07
-5.41336e-07
4.05536e-07
-8.28706e-07
3.76105e-07
-1.12471e-06
3.42903e-07
-1.43144e-06
3.06079e-07
-1.75081e-06
2.65988e-07
-2.08426e-06
2.23246e-07
-2.43207e-06
1.78603e-07
-2.79271e-06
1.32754e-07
-3.16349e-06
8.5236e-08
-3.54289e-06
3.35635e-08
-3.93672e-06
-2.72912e-08
-4.37228e-06
-1.00749e-07
-4.91721e-06
-1.77494e-07
-5.67551e-06
-2.3144e-07
-6.70557e-06
-1.88638e-07
-7.77249e-06
-7.94373e-06
2.42641e-07
2.5089e-06
4.00212e-07
3.90978e-06
5.12169e-07
4.46975e-06
6.05162e-07
4.76363e-06
6.79295e-07
4.8605e-06
7.32718e-07
4.79967e-06
7.60813e-07
4.5947e-06
7.76117e-07
4.28761e-06
7.83304e-07
3.94319e-06
7.86182e-07
3.58686e-06
7.87379e-07
3.23429e-06
7.88397e-07
2.89342e-06
7.89815e-07
2.56704e-06
7.91552e-07
2.25489e-06
7.93123e-07
1.95528e-06
7.93842e-07
1.66599e-06
7.92973e-07
1.38477e-06
7.89811e-07
1.10958e-06
7.83736e-07
8.38524e-07
7.74222e-07
5.69874e-07
7.60835e-07
3.01953e-07
7.43228e-07
3.30886e-08
7.21128e-07
-2.38472e-07
6.94328e-07
-5.14536e-07
6.62658e-07
-7.97036e-07
6.25993e-07
-1.08805e-06
5.84251e-07
-1.3897e-06
5.37451e-07
-1.70401e-06
4.85755e-07
-2.03257e-06
4.29498e-07
-2.37581e-06
3.69276e-07
-2.73249e-06
3.05769e-07
-3.09998e-06
2.39028e-07
-3.47615e-06
1.67219e-07
-3.86492e-06
8.56786e-08
-4.29074e-06
-9.71221e-09
-4.82181e-06
-1.09318e-07
-5.5759e-06
-1.85618e-07
-6.62927e-06
-1.69085e-07
-7.78902e-06
-8.11282e-06
2.98816e-07
2.21008e-06
5.06576e-07
3.70202e-06
6.55987e-07
4.32034e-06
7.78594e-07
4.64103e-06
8.76383e-07
4.76271e-06
9.52163e-07
4.72389e-06
9.96765e-07
4.5501e-06
1.02293e-06
4.26145e-06
1.03824e-06
3.92788e-06
1.04736e-06
3.57774e-06
1.0535e-06
3.22815e-06
1.05858e-06
2.88834e-06
1.06345e-06
2.56217e-06
1.06815e-06
2.25019e-06
1.07224e-06
1.9512e-06
1.07498e-06
1.66324e-06
1.07558e-06
1.38417e-06
1.07323e-06
1.11192e-06
1.06723e-06
8.44528e-07
1.05695e-06
5.8015e-07
1.04189e-06
3.17018e-07
1.02161e-06
5.33663e-08
9.95784e-07
-2.12645e-07
9.64129e-07
-4.82881e-07
9.26408e-07
-7.59315e-07
8.8242e-07
-1.04406e-06
8.31991e-07
-1.33927e-06
7.74963e-07
-1.64698e-06
7.11223e-07
-1.96882e-06
6.40874e-07
-2.30546e-06
5.6434e-07
-2.65595e-06
4.82249e-07
-3.01789e-06
3.95023e-07
-3.38892e-06
3.01604e-07
-3.7715e-06
1.97965e-07
-4.18711e-06
8.00709e-08
-4.70392e-06
-4.33182e-08
-5.45251e-06
-1.41972e-07
-6.53062e-06
-1.52962e-07
-7.77803e-06
-8.26578e-06
3.50743e-07
1.85934e-06
6.06523e-07
3.44624e-06
7.92275e-07
4.13459e-06
9.4312e-07
4.49018e-06
1.06626e-06
4.63956e-06
1.1625e-06
4.62765e-06
1.22747e-06
4.48513e-06
1.26741e-06
4.22151e-06
1.29281e-06
3.90248e-06
1.30978e-06
3.56077e-06
1.3222e-06
3.21572e-06
1.33243e-06
2.87811e-06
1.34161e-06
2.55299e-06
1.34998e-06
2.24182e-06
1.35716e-06
1.94402e-06
1.36243e-06
1.65797e-06
1.36494e-06
1.38166e-06
1.36383e-06
1.11303e-06
1.35829e-06
8.50068e-07
1.34762e-06
5.90823e-07
1.33121e-06
3.33431e-07
1.30854e-06
7.603e-08
1.27921e-06
-1.83315e-07
1.24285e-06
-4.46522e-07
1.19914e-06
-7.15599e-07
1.14777e-06
-9.92688e-07
1.08843e-06
-1.27993e-06
1.0208e-06
-1.57936e-06
9.44567e-07
-1.89259e-06
8.59529e-07
-2.22043e-06
7.65798e-07
-2.56222e-06
6.63996e-07
-2.91609e-06
5.54922e-07
-3.27985e-06
4.38285e-07
-3.65486e-06
3.10772e-07
-4.05959e-06
1.6888e-07
-4.56203e-06
2.21803e-08
-5.30581e-06
-1.0076e-07
-6.40768e-06
-1.36292e-07
-7.7425e-06
-8.40207e-06
3.93688e-07
1.46565e-06
6.94211e-07
3.14572e-06
9.16091e-07
3.91271e-06
1.09525e-06
4.31103e-06
1.24381e-06
4.491e-06
1.36202e-06
4.50944e-06
1.44975e-06
4.39739e-06
1.50712e-06
4.16414e-06
1.54564e-06
3.86396e-06
1.57287e-06
3.53354e-06
1.59356e-06
3.19503e-06
1.61057e-06
2.8611e-06
1.62537e-06
2.53818e-06
1.63844e-06
2.22875e-06
1.64955e-06
1.93292e-06
1.65804e-06
1.64948e-06
1.66305e-06
1.37664e-06
1.66369e-06
1.11239e-06
1.65909e-06
8.54677e-07
1.64844e-06
6.01466e-07
1.63107e-06
3.50809e-07
1.60635e-06
1.00744e-07
1.57379e-06
-1.50758e-07
1.53292e-06
-4.0565e-07
1.4833e-06
-6.65974e-07
1.42449e-06
-9.33883e-07
1.35604e-06
-1.21148e-06
1.27743e-06
-1.50074e-06
1.18808e-06
-1.80324e-06
1.08753e-06
-2.11987e-06
9.75627e-07
-2.45032e-06
8.52895e-07
-2.79336e-06
7.20329e-07
-3.14728e-06
5.78535e-07
-3.51306e-06
4.2507e-07
-3.90613e-06
2.56381e-07
-4.39334e-06
8.10435e-08
-5.13048e-06
-6.45531e-08
-6.26208e-06
-1.23655e-07
-7.6834e-06
-8.52573e-06
4.17904e-07
1.04775e-06
7.60364e-07
2.80326e-06
1.02137e-06
3.6517e-06
1.22995e-06
4.10244e-06
1.40369e-06
4.31727e-06
1.54664e-06
4.36648e-06
1.65853e-06
4.2855e-06
1.73784e-06
4.08484e-06
1.79384e-06
3.80796e-06
1.83494e-06
3.49244e-06
1.86683e-06
3.16315e-06
1.89299e-06
2.83493e-06
1.91535e-06
2.51582e-06
1.93467e-06
2.20943e-06
1.95093e-06
1.91665e-06
1.96362e-06
1.63679e-06
1.97194e-06
1.36832e-06
1.975e-06
1.10933e-06
1.9719e-06
8.57779e-07
1.96179e-06
6.11574e-07
1.94388e-06
3.68713e-07
1.91749e-06
1.27136e-07
1.882e-06
-1.15268e-07
1.83682e-06
-3.60467e-07
1.78136e-06
-6.10517e-07
1.71504e-06
-8.67565e-07
1.6372e-06
-1.13364e-06
1.5471e-06
-1.41064e-06
1.4439e-06
-1.70004e-06
1.32686e-06
-2.00284e-06
1.19559e-06
-2.31906e-06
1.05053e-06
-2.64829e-06
8.92818e-07
-2.98957e-06
7.23876e-07
-3.34412e-06
5.42337e-07
-3.72459e-06
3.44871e-07
-4.19587e-06
1.40379e-07
-4.92598e-06
-3.28832e-08
-6.08882e-06
-1.12072e-07
-7.60421e-06
-8.6378e-06
4.04627e-07
6.43121e-07
7.93696e-07
2.41419e-06
1.09896e-06
3.34644e-06
1.33956e-06
3.86185e-06
1.53917e-06
4.11766e-06
1.70875e-06
4.1969e-06
1.84794e-06
4.14632e-06
1.95381e-06
3.97897e-06
2.03266e-06
3.72911e-06
2.09257e-06
3.43253e-06
2.13984e-06
3.11588e-06
2.17862e-06
2.79615e-06
2.21134e-06
2.48311e-06
2.23916e-06
2.18161e-06
2.26237e-06
1.89344e-06
2.28067e-06
1.61849e-06
2.29342e-06
1.35557e-06
2.29981e-06
1.10295e-06
2.29895e-06
8.58641e-07
2.28998e-06
6.20544e-07
2.27205e-06
3.86645e-07
2.24438e-06
1.54801e-07
2.20625e-06
-7.71333e-08
2.15693e-06
-3.11153e-07
2.09568e-06
-5.49266e-07
2.02171e-06
-7.93591e-07
1.93411e-06
-1.04604e-06
1.83189e-06
-1.30842e-06
1.71396e-06
-1.5821e-06
1.57932e-06
-1.86821e-06
1.42737e-06
-2.1671e-06
1.25849e-06
-2.47941e-06
1.07393e-06
-2.80501e-06
8.75762e-07
-3.14596e-06
6.63862e-07
-3.51269e-06
4.35961e-07
-3.96797e-06
2.00129e-07
-4.69015e-06
-6.14929e-09
-5.88254e-06
-1.04921e-07
-7.50544e-06
-8.74272e-06
3.29243e-07
3.13878e-07
7.87422e-07
1.95601e-06
1.13808e-06
2.99578e-06
1.4139e-06
3.58603e-06
1.64229e-06
3.88927e-06
1.84021e-06
3.99898e-06
2.01002e-06
3.9765e-06
2.14755e-06
3.84144e-06
2.25554e-06
3.62112e-06
2.34048e-06
3.34759e-06
2.40866e-06
3.0477e-06
2.46475e-06
2.74007e-06
2.51172e-06
2.43614e-06
2.55121e-06
2.14212e-06
2.58392e-06
1.86073e-06
2.60987e-06
1.59254e-06
2.62865e-06
1.33679e-06
2.63961e-06
1.09199e-06
2.64197e-06
8.56281e-07
2.6349e-06
6.27615e-07
2.61754e-06
4.04009e-07
2.58905e-06
1.83286e-07
2.5485e-06
-3.65805e-08
2.4952e-06
-2.5785e-07
2.42811e-06
-4.82178e-07
2.34623e-06
-7.11713e-07
2.24839e-06
-9.482e-07
2.13333e-06
-1.19336e-06
1.99966e-06
-1.44843e-06
1.84622e-06
-1.71477e-06
1.67221e-06
-1.9931e-06
1.47802e-06