/*--------------------------------*- C++ -*----------------------------------*\
  =========                 |
  \\      /  F ield         | OpenFOAM: The Open Source CFD Toolbox
   \\    /   O peration     | Website:  https://openfoam.org
    \\  /    A nd           | Version:  12
     \\/     M anipulation  |
\*---------------------------------------------------------------------------*/
FoamFile
{
    format      ascii;
    class       volVectorField;
    location    "10";
    object      U;
}
// * * * * * * * * * * * * * * * * * * * * * * * * * * * * * * * * * * * * * //

dimensions      [0 1 -1 0 0 0 0];

internalField   nonuniform List<vector> 
1600
(
(0.00142783 -0.00120995 0)
(0.00703361 -0.00181621 0)
(0.0121578 -0.00144222 0)
(0.0151385 -0.00017561 0)
(0.015272 0.000411861 0)
(0.0146014 0.000173691 0)
(0.0137376 -0.000711294 0)
(0.013553 -0.00130017 0)
(0.0131359 -0.00126926 0)
(0.0118022 -0.000939385 0)
(0.00880777 -0.000745863 0)
(0.000913658 0.000225525 0)
(-0.0105751 0.00265233 0)
(-0.0235192 0.00899659 0)
(-0.0519905 0.014482 0)
(-0.0771152 0.013887 0)
(-0.100231 0.0127183 0)
(-0.119619 0.0108922 0)
(-0.135879 0.00914301 0)
(-0.148944 0.00736118 0)
(-0.159011 0.00568802 0)
(-0.166224 0.00404833 0)
(-0.170154 0.00257274 0)
(-0.171627 0.00109013 0)
(-0.170217 -0.00134372 0)
(-0.165141 -0.00293011 0)
(-0.157056 -0.00527072 0)
(-0.144894 -0.00709979 0)
(-0.129306 -0.00944127 0)
(-0.110095 -0.0117042 0)
(-0.0874657 -0.0139571 0)
(-0.0621231 -0.0154029 0)
(-0.035394 -0.0157255 0)
(-0.00810419 -0.0142956 0)
(0.0140296 -0.0120574 0)
(0.0304449 -0.00486501 0)
(0.0322052 0.00313581 0)
(0.0256835 0.00536594 0)
(0.0124483 0.00478176 0)
(0.00262381 0.00323977 0)
(0.00247036 -0.00700124 0)
(0.0117427 -0.0100013 0)
(0.0174931 -0.00702274 0)
(0.0206453 -0.00253424 0)
(0.0207036 0.000776093 0)
(0.0183406 0.00187714 0)
(0.0143847 0.00160403 0)
(0.00900024 0.00189917 0)
(0.000509033 0.00351285 0)
(-0.0126225 0.0066897 0)
(-0.0317654 0.0126149 0)
(-0.0600516 0.022072 0)
(-0.0922253 0.0312481 0)
(-0.119686 0.0370225 0)
(-0.142044 0.0361686 0)
(-0.161534 0.0333019 0)
(-0.177709 0.0290853 0)
(-0.191134 0.0245341 0)
(-0.201847 0.0199712 0)
(-0.210049 0.0155188 0)
(-0.215804 0.0112243 0)
(-0.219217 0.00699458 0)
(-0.220313 0.0028129 0)
(-0.21914 -0.00153347 0)
(-0.215393 -0.00622559 0)
(-0.209171 -0.0110756 0)
(-0.20015 -0.0162494 0)
(-0.188113 -0.0216694 0)
(-0.172728 -0.0273305 0)
(-0.153409 -0.0327876 0)
(-0.131125 -0.0379747 0)
(-0.105868 -0.0418298 0)
(-0.078319 -0.0427851 0)
(-0.0498478 -0.0396798 0)
(-0.0223339 -0.0310775 0)
(0.00101422 -0.0147903 0)
(0.0169971 0.00376787 0)
(0.0172601 0.0119029 0)
(0.0103682 0.0144096 0)
(0.00161863 0.0112129 0)
(0.00381542 -0.0160137 0)
(0.0125219 -0.0176555 0)
(0.0157582 -0.0112462 0)
(0.0163611 -0.00301785 0)
(0.0140538 0.00287725 0)
(0.00875465 0.00596071 0)
(-0.000552186 0.00823779 0)
(-0.0148988 0.0130757 0)
(-0.0360582 0.0222063 0)
(-0.0642245 0.0343981 0)
(-0.0952486 0.0459013 0)
(-0.123468 0.0528181 0)
(-0.147464 0.0557505 0)
(-0.166324 0.0551542 0)
(-0.1819 0.0515258 0)
(-0.194493 0.046403 0)
(-0.204779 0.0401925 0)
(-0.213057 0.0337692 0)
(-0.21959 0.027304 0)
(-0.224453 0.0210102 0)
(-0.227872 0.0145505 0)
(-0.229628 0.00846046 0)
(-0.229767 0.00228116 0)
(-0.228163 -0.00393543 0)
(-0.22489 -0.0104504 0)
(-0.219832 -0.0174007 0)
(-0.21287 -0.0250586 0)
(-0.203766 -0.0334191 0)
(-0.192392 -0.0425556 0)
(-0.178329 -0.0518316 0)
(-0.161078 -0.060627 0)
(-0.140435 -0.0676081 0)
(-0.116348 -0.070482 0)
(-0.0902151 -0.0682744 0)
(-0.0620829 -0.0574642 0)
(-0.0335821 -0.0365514 0)
(-0.00656793 -0.00631232 0)
(0.0016311 0.0119401 0)
(0.00185299 0.0189576 0)
(-0.000283094 0.0149331 0)
(0.00419637 -0.025055 0)
(0.00883208 -0.0221593 0)
(0.00878662 -0.0113257 0)
(0.00543658 -2.21757e-06 0)
(-0.000987883 0.00880353 0)
(-0.0120031 0.0163782 0)
(-0.0291 0.0253209 0)
(-0.0524709 0.0373235 0)
(-0.0806707 0.0512813 0)
(-0.110516 0.0637174 0)
(-0.136992 0.0715935 0)
(-0.157428 0.0742385 0)
(-0.173534 0.073207 0)
(-0.185797 0.0691004 0)
(-0.195868 0.0631418 0)
(-0.203734 0.05607 0)
(-0.210176 0.0483777 0)
(-0.215334 0.0403702 0)
(-0.219755 0.0321942 0)
(-0.223037 0.0242225 0)
(-0.225191 0.0166474 0)
(-0.226078 0.00899855 0)
(-0.225798 0.00136854 0)
(-0.22433 -0.00642787 0)
(-0.221695 -0.0144601 0)
(-0.217759 -0.0229457 0)
(-0.212472 -0.0320294 0)
(-0.205707 -0.0418348 0)
(-0.19732 -0.0524579 0)
(-0.187288 -0.064124 0)
(-0.175425 -0.0762254 0)
(-0.161458 -0.0878388 0)
(-0.144633 -0.0963482 0)
(-0.122748 -0.0975376 0)
(-0.096338 -0.0883274 0)
(-0.0656279 -0.0657252 0)
(-0.0295042 -0.0273737 0)
(-0.00759768 0.00472348 0)
(-0.00247595 0.016733 0)
(-0.000355527 0.0143708 0)
(0.00235064 -0.0295166 0)
(0.00287861 -0.021727 0)
(-0.00188232 -0.00672073 0)
(-0.00948909 0.00765381 0)
(-0.0211032 0.020876 0)
(-0.0379874 0.0341365 0)
(-0.0606886 0.0489998 0)
(-0.0875586 0.0649526 0)
(-0.11515 0.0789204 0)
(-0.139428 0.0878428 0)
(-0.1577 0.0906836 0)
(-0.171538 0.0893931 0)
(-0.18218 0.0850908 0)
(-0.190207 0.0785558 0)
(-0.196666 0.0707527 0)
(-0.20179 0.0619992 0)
(-0.206164 0.0529058 0)
(-0.209493 0.0438407 0)
(-0.211688 0.0350015 0)
(-0.212843 0.0262566 0)
(-0.213317 0.0176696 0)
(-0.21305 0.00912489 0)
(-0.212167 0.00058171 0)
(-0.210642 -0.0081626 0)
(-0.208312 -0.0171926 0)
(-0.205247 -0.0267537 0)
(-0.201398 -0.0370059 0)
(-0.196753 -0.0481122 0)
(-0.191221 -0.0601185 0)
(-0.184677 -0.072931 0)
(-0.176881 -0.0862456 0)
(-0.16744 -0.0993266 0)
(-0.156156 -0.111606 0)
(-0.141828 -0.119658 0)
(-0.121634 -0.117937 0)
(-0.093406 -0.10044 0)
(-0.0572083 -0.064122 0)
(-0.0172632 -0.0133135 0)
(-0.00233656 0.0111633 0)
(0.000691899 0.0132773 0)
(-0.000852115 -0.0299644 0)
(-0.00509479 -0.0161939 0)
(-0.0139925 0.00201126 0)
(-0.0259025 0.0201852 0)
(-0.0421108 0.0381127 0)
(-0.0630842 0.0563542 0)
(-0.0878057 0.0746188 0)
(-0.113244 0.0906148 0)
(-0.135776 0.101361 0)
(-0.152666 0.105191 0)
(-0.164899 0.103943 0)
(-0.17425 0.0995473 0)
(-0.1811 0.0927318 0)
(-0.186228 0.084407 0)
(-0.190106 0.0751519 0)
(-0.192777 0.0654777 0)
(-0.19454 0.055662 0)
(-0.195537 0.0458471 0)
(-0.196033 0.0362021 0)
(-0.1962 0.0267755 0)
(-0.195848 0.0175867 0)
(-0.195076 0.00850539 0)
(-0.193864 -0.000552907 0)
(-0.192171 -0.00976299 0)
(-0.189968 -0.0192641 0)
(-0.18736 -0.0292671 0)
(-0.184355 -0.0399608 0)
(-0.181008 -0.0515489 0)
(-0.177329 -0.0641928 0)
(-0.173302 -0.0779478 0)
(-0.168799 -0.0926246 0)
(-0.16349 -0.107627 0)
(-0.156695 -0.121704 0)
(-0.147276 -0.133018 0)
(-0.133748 -0.13888 0)
(-0.112977 -0.132 0)
(-0.082303 -0.105003 0)
(-0.0382433 -0.0516194 0)
(-0.00505607 -0.0016179 0)
(0.00169598 0.0125446 0)
(-0.00417325 -0.0241284 0)
(-0.0129784 -0.00664085 0)
(-0.0255392 0.0147513 0)
(-0.0411662 0.0366792 0)
(-0.0606657 0.0586573 0)
(-0.0831502 0.0798138 0)
(-0.106586 0.098404 0)
(-0.127855 0.111727 0)
(-0.143999 0.11765 0)
(-0.155161 0.11717 0)
(-0.163372 0.112977 0)
(-0.169233 0.10613 0)
(-0.173218 0.0974954 0)
(-0.175915 0.087821 0)
(-0.177572 0.077528 0)
(-0.178482 0.0670123 0)
(-0.178909 0.0565196 0)
(-0.178972 0.0462141 0)
(-0.178762 0.0361833 0)
(-0.178261 0.0264 0)
(-0.177444 0.0168268 0)
(-0.17633 0.00736202 0)
(-0.174896 -0.00208213 0)
(-0.17313 -0.0116215 0)
(-0.171037 -0.0214407 0)
(-0.168678 -0.0316907 0)
(-0.166114 -0.0425499 0)
(-0.163427 -0.0541999 0)
(-0.160694 -0.0668239 0)
(-0.157974 -0.0805662 0)
(-0.155264 -0.0954595 0)
(-0.1524 -0.111264 0)
(-0.14886 -0.127237 0)
(-0.143545 -0.141717 0)
(-0.134727 -0.151952 0)
(-0.120351 -0.153878 0)
(-0.09787 -0.139608 0)
(-0.0635408 -0.0985533 0)
(-0.0145963 -0.02375 0)
(0.00268533 0.011406 0)
(-0.00717684 -0.0141626 0)
(-0.0194571 0.00710318 0)
(-0.0348546 0.0308812 0)
(-0.0534009 0.0558469 0)
(-0.0742363 0.0801541 0)
(-0.0960072 0.101797 0)
(-0.116412 0.118415 0)
(-0.132525 0.127531 0)
(-0.143344 0.128821 0)
(-0.150814 0.125272 0)
(-0.156064 0.118705 0)
(-0.159393 0.109966 0)
(-0.16139 0.0999584 0)
(-0.162446 0.0892458 0)
(-0.162841 0.0782264 0)
(-0.162853 0.0672263 0)
(-0.16262 0.0564115 0)
(-0.162208 0.0458754 0)
(-0.161627 0.0356277 0)
(-0.160854 0.0256197 0)
(-0.159872 0.0157927 0)
(-0.158657 0.00605848 0)
(-0.157191 -0.00366751 0)
(-0.155458 -0.0134954 0)
(-0.153476 -0.0235623 0)
(-0.151287 -0.0340055 0)
(-0.148962 -0.0449786 0)
(-0.1466 -0.0566468 0)
(-0.144315 -0.0691861 0)
(-0.142216 -0.0827607 0)
(-0.140364 -0.0974752 0)
(-0.138698 -0.113282 0)
(-0.136882 -0.129807 0)
(-0.134061 -0.146103 0)
(-0.12874 -0.160133 0)
(-0.118948 -0.168115 0)
(-0.102627 -0.163923 0)
(-0.0768565 -0.137071 0)
(-0.033227 -0.0676589 0)
(0.000426436 0.000560175 0)
(-0.00888565 -0.000318105 0)
(-0.0241577 0.0240327 0)
(-0.0414783 0.0492643 0)
(-0.061301 0.0757752 0)
(-0.0819605 0.100648 0)
(-0.101819 0.121064 0)
(-0.118528 0.134307 0)
(-0.129786 0.138604 0)
(-0.137127 0.136451 0)
(-0.142106 0.130511 0)
(-0.145239 0.122034 0)
(-0.146916 0.111896 0)
(-0.147682 0.100907 0)
(-0.147826 0.089527 0)
(-0.14762 0.0781136 0)
(-0.147241 0.0668845 0)
(-0.146754 0.0559274 0)
(-0.146187 0.0452712 0)
(-0.14552 0.0348857 0)
(-0.144724 0.0247169 0)
(-0.143763 0.0146995 0)
(-0.142602 0.0047467 0)
(-0.141212 -0.00521853 0)
(-0.139576 -0.0152904 0)
(-0.137703 -0.0255732 0)
(-0.135628 -0.0361741 0)
(-0.133414 -0.0472165 0)
(-0.131161 -0.05884 0)
(-0.128996 -0.0712106 0)
(-0.12706 -0.0845167 0)
(-0.125475 -0.0989429 0)
(-0.124271 -0.114595 0)
(-0.123271 -0.131366 0)
(-0.121875 -0.148708 0)
(-0.118793 -0.165222 0)
(-0.112214 -0.177884 0)
(-0.100402 -0.180975 0)
(-0.0811943 -0.165885 0)
(-0.0506799 -0.115063 0)
(-0.00693612 -0.0148506 0)
(-0.00989845 0.0158627 0)
(-0.026851 0.0425426 0)
(-0.0449564 0.0684706 0)
(-0.0649712 0.0953412 0)
(-0.0845119 0.119562 0)
(-0.102009 0.13749 0)
(-0.114281 0.145942 0)
(-0.122427 0.146462 0)
(-0.127516 0.141642 0)
(-0.130791 0.133767 0)
(-0.132547 0.123811 0)
(-0.133265 0.112676 0)
(-0.133381 0.101042 0)
(-0.133129 0.0892909 0)
(-0.132727 0.077697 0)
(-0.132263 0.0663794 0)
(-0.13177 0.0553683 0)
(-0.131244 0.0446486 0)
(-0.130653 0.0341695 0)
(-0.129955 0.0238687 0)
(-0.129109 0.0136787 0)
(-0.128076 0.00352107 0)
(-0.126821 -0.00667783 0)
(-0.125329 -0.0169915 0)
(-0.123596 -0.027503 0)
(-0.121646 -0.0382914 0)
(-0.119527 -0.0494466 0)
(-0.11732 -0.0610728 0)
(-0.115139 -0.0733032 0)
(-0.113129 -0.0863124 0)
(-0.11144 -0.10032 0)
(-0.110176 -0.115561 0)
(-0.109306 -0.132182 0)
(-0.108489 -0.150053 0)
(-0.106716 -0.168373 0)
(-0.102177 -0.184737 0)
(-0.0933187 -0.19366 0)
(-0.0784239 -0.187717 0)
(-0.0551612 -0.151047 0)
(-0.0158281 -0.0426381 0)
(-0.0103223 0.0331846 0)
(-0.0277689 0.0617455 0)
(-0.0456359 0.0875793 0)
(-0.0649394 0.113912 0)
(-0.0829324 0.13642 0)
(-0.0971752 0.150424 0)
(-0.106147 0.154691 0)
(-0.112415 0.152183 0)
(-0.115939 0.145205 0)
(-0.118136 0.135766 0)
(-0.119081 0.124696 0)
(-0.119332 0.112873 0)
(-0.119194 0.100844 0)
(-0.118864 0.0889099 0)
(-0.118488 0.0772534 0)
(-0.118107 0.0659187 0)
(-0.117729 0.0548943 0)
(-0.117332 0.044135 0)
(-0.116874 0.0335777 0)
(-0.116315 0.0231548 0)
(-0.115611 0.0127997 0)
(-0.114725 0.00244402 0)
(-0.113628 -0.00798089 0)
(-0.112302 -0.0185339 0)
(-0.110738 -0.0292803 0)
(-0.108948 -0.0402798 0)
(-0.10696 -0.0515955 0)
(-0.104831 -0.0633003 0)
(-0.102649 -0.0754922 0)
(-0.100538 -0.0883169 0)
(-0.0986461 -0.101992 0)
(-0.0971138 -0.116812 0)
(-0.096006 -0.133098 0)
(-0.0951945 -0.151034 0)
(-0.094017 -0.170391 0)
(-0.0907814 -0.189768 0)
(-0.0839711 -0.203456 0)
(-0.0718442 -0.20497 0)
(-0.0516173 -0.180949 0)
(-0.0191993 -0.0932442 0)
(-0.0100487 0.0504163 0)
(-0.0270707 0.0806001 0)
(-0.0440339 0.105777 0)
(-0.0619696 0.130841 0)
(-0.0781065 0.150988 0)
(-0.0888856 0.160485 0)
(-0.0962164 0.161567 0)
(-0.100861 0.156451 0)
(-0.103436 0.147733 0)
(-0.104972 0.137036 0)
(-0.105511 0.125141 0)
(-0.105607 0.112855 0)
(-0.10545 0.100595 0)
(-0.105206 0.0885841 0)
(-0.104961 0.0769204 0)
(-0.104729 0.0655953 0)
(-0.104502 0.0545658 0)
(-0.104246 0.0437671 0)
(-0.103923 0.0331297 0)
(-0.103496 0.0225855 0)
(-0.102926 0.0120708 0)
(-0.102184 0.00152512 0)
(-0.101246 -0.00911289 0)
(-0.100094 -0.0198953 0)
(-0.0987181 -0.0308739 0)
(-0.0971182 -0.042096 0)
(-0.0953056 -0.0536052 0)
(-0.0933117 -0.0654484 0)
(-0.0911935 -0.0776903 0)
(-0.089043 -0.0904397 0)
(-0.0869881 -0.103889 0)
(-0.0851766 -0.118351 0)
(-0.0837293 -0.134256 0)
(-0.0826501 -0.15203 0)
(-0.0816134 -0.171843 0)
(-0.0793095 -0.193096 0)
(-0.0734678 -0.21192 0)
(-0.0638878 -0.218593 0)
(-0.0464469 -0.204159 0)
(-0.0161883 -0.127673 0)
(-0.00927589 0.0669384 0)
(-0.0251521 0.098506 0)
(-0.0407417 0.122663 0)
(-0.0571439 0.146117 0)
(-0.0706991 0.162837 0)
(-0.0789982 0.168644 0)
(-0.0851375 0.166988 0)
(-0.0886315 0.159755 0)
(-0.0906533 0.149623 0)
(-0.0918082 0.137929 0)
(-0.0922022 0.125432 0)
(-0.0923129 0.112833 0)
(-0.0922547 0.10044 0)
(-0.0921615 0.0884007 0)
(-0.0920749 0.0767457 0)
(-0.091995 0.0654282 0)
(-0.0919043 0.0543826 0)
(-0.0917702 0.0435333 0)
(-0.09156 0.0328089 0)
(-0.0912428 0.0221436 0)
(-0.0907908 0.0114781 0)
(-0.0901802 0.000756941 0)
(-0.0893959 -0.0100751 0)
(-0.0884215 -0.0210672 0)
(-0.0872444 -0.032264 0)
(-0.0858584 -0.0437063 0)
(-0.0842612 -0.0554263 0)
(-0.0824625 -0.0674536 0)
(-0.0804902 -0.079826 0)
(-0.0784014 -0.0926158 0)
(-0.0762918 -0.105976 0)
(-0.0742944 -0.120202 0)
(-0.0725523 -0.135778 0)
(-0.071147 -0.153321 0)
(-0.0699571 -0.173324 0)
(-0.0681073 -0.195772 0)
(-0.0631734 -0.218798 0)
(-0.0554622 -0.230374 0)
(-0.0406752 -0.225135 0)
(-0.0143602 -0.16169 0)
(-0.00810496 0.0819579 0)
(-0.0224382 0.114893 0)
(-0.0363334 0.137834 0)
(-0.0509477 0.159358 0)
(-0.0617351 0.172346 0)
(-0.0684134 0.175406 0)
(-0.073594 0.171364 0)
(-0.0762753 0.162417 0)
(-0.0779784 0.151135 0)
(-0.0789289 0.138661 0)
(-0.0793203 0.125722 0)
(-0.0795202 0.112906 0)
(-0.0795997 0.10043 0)
(-0.0796598 0.0883761 0)
(-0.0797156 0.0767227 0)
(-0.0797609 0.0653968 0)
(-0.079776 0.0543177 0)
(-0.0797338 0.0434054 0)
(-0.0796097 0.0325897 0)
(-0.0793822 0.0218083 0)
(-0.0790326 0.0110056 0)
(-0.0785447 0.000129686 0)
(-0.0779086 -0.0108716 0)
(-0.0771109 -0.0220463 0)
(-0.0761395 -0.0334378 0)
(-0.074983 -0.0450841 0)
(-0.0736297 -0.0570134 0)
(-0.0720729 -0.0692448 0)
(-0.0703168 -0.0817969 0)
(-0.0683879 -0.0947107 0)
(-0.066349 -0.108097 0)
(-0.0643082 -0.12221 0)
(-0.0624098 -0.137537 0)
(-0.0607814 -0.154815 0)
(-0.0594153 -0.174819 0)
(-0.0578405 -0.198016 0)
(-0.0541212 -0.223525 0)
(-0.0467827 -0.240935 0)
(-0.035463 -0.241173 0)
(-0.0117705 -0.187454 0)
(-0.00684117 0.0952223 0)
(-0.019196 0.129395 0)
(-0.0311929 0.150995 0)
(-0.0437538 0.170385 0)
(-0.0520733 0.180123 0)
(-0.057895 0.181035 0)
(-0.061968 0.174949 0)
(-0.064127 0.164635 0)
(-0.0656174 0.152428 0)
(-0.0664652 0.139346 0)
(-0.0669118 0.126078 0)
(-0.0672159 0.113102 0)
(-0.0674251 0.100563 0)
(-0.0676107 0.0884887 0)
(-0.0677743 0.07682 0)
(-0.0679086 0.0654663 0)
(-0.0679965 0.0543384 0)
(-0.0680193 0.0433558 0)
(-0.0679609 0.0324503 0)
(-0.0678084 0.0215632 0)
(-0.0675512 0.0106417 0)
(-0.0671801 -0.000364481 0)
(-0.0666887 -0.011506 0)
(-0.0660673 -0.0228323 0)
(-0.0653048 -0.0343885 0)
(-0.0643875 -0.0462144 0)
(-0.0632978 -0.0583386 0)
(-0.0620174 -0.0707765 0)
(-0.0605325 -0.0835342 0)
(-0.0588455 -0.0966273 0)
(-0.0569897 -0.110126 0)
(-0.0550455 -0.124233 0)
(-0.0531452 -0.139407 0)
(-0.0514395 -0.156443 0)
(-0.0499864 -0.176365 0)
(-0.0485399 -0.199999 0)
(-0.0457075 -0.227248 0)
(-0.0391706 -0.250491 0)
(-0.0309524 -0.255898 0)
(-0.0103048 -0.211628 0)
(-0.00528705 0.106053 0)
(-0.0156121 0.141708 0)
(-0.0256841 0.16214 0)
(-0.0360808 0.179321 0)
(-0.0424145 0.186486 0)
(-0.04738 0.185599 0)
(-0.0505364 0.177908 0)
(-0.0523371 0.166522 0)
(-0.0536586 0.153583 0)
(-0.054452 0.140033 0)
(-0.0549589 0.126513 0)
(-0.0553495 0.113408 0)
(-0.0556567 0.100809 0)
(-0.0559283 0.088701 0)
(-0.0561613 0.0769994 0)
(-0.0563502 0.0656024 0)
(-0.0564837 0.0544169 0)
(-0.0565511 0.0433632 0)
(-0.0565446 0.0323757 0)
(-0.0564586 0.0213983 0)
(-0.0562887 0.0103798 0)
(-0.056031 -0.000729534 0)
(-0.0556825 -0.0119804 0)
(-0.0552368 -0.0234248 0)
(-0.0546845 -0.035112 0)
(-0.0540117 -0.0470861 0)
(-0.0531982 -0.0593801 0)
(-0.0522185 -0.0720108 0)
(-0.0510466 -0.0849782 0)
(-0.049666 -0.0982784 0)
(-0.0480862 -0.111944 0)
(-0.046362 -0.126126 0)
(-0.0446107 -0.141226 0)
(-0.0429998 -0.158052 0)
(-0.0416477 -0.177806 0)
(-0.0404014 -0.201622 0)
(-0.0382961 -0.229837 0)
(-0.0332798 -0.25774 0)
(-0.0260924 -0.26787 0)
(-0.00864545 -0.230595 0)
(-0.00391776 0.114766 0)
(-0.0119034 0.151846 0)
(-0.0200835 0.171294 0)
(-0.0282666 0.186314 0)
(-0.0329357 0.191559 0)
(-0.0370441 0.189245 0)
(-0.0394399 0.180337 0)
(-0.0409523 0.168136 0)
(-0.0421167 0.154633 0)
(-0.0428675 0.140725 0)
(-0.0434124 0.127007 0)
(-0.0438563 0.113791 0)
(-0.0442219 0.101128 0)
(-0.0445397 0.0889736 0)
(-0.044807 0.0772257 0)
(-0.045022 0.0657767 0)
(-0.0451801 0.0545319 0)
(-0.0452782 0.0434131 0)
(-0.0453151 0.0323569 0)
(-0.0452911 0.0213084 0)
(-0.0452065 0.0102173 0)
(-0.0450613 -0.000966847 0)
(-0.0448551 -0.0122958 0)
(-0.0445846 -0.0238244 0)
(-0.0442426 -0.0356068 0)
(-0.0438167 -0.0476934 0)
(-0.0432867 -0.0601242 0)
(-0.0426244 -0.0729216 0)
(-0.0417962 -0.0860848 0)
(-0.0407725 -0.0995966 0)
(-0.0395432 -0.113457 0)
(-0.0381397 -0.127762 0)
(-0.0366591 -0.142848 0)
(-0.0352684 -0.159496 0)
(-0.034126 -0.179032 0)
(-0.0331524 -0.202921 0)
(-0.0316729 -0.231955 0)
(-0.0279514 -0.263561 0)
(-0.0227801 -0.278569 0)
(-0.00751745 -0.248282 0)
(-0.00218006 0.120673 0)
(-0.00812203 0.159649 0)
(-0.0144019 0.178369 0)
(-0.0204987 0.191567 0)
(-0.0237504 0.195436 0)
(-0.0269823 0.192068 0)
(-0.0287224 0.182302 0)
(-0.0299614 0.169507 0)
(-0.030963 0.155581 0)
(-0.0316598 0.141404 0)
(-0.032209 0.127528 0)
(-0.0326693 0.114211 0)
(-0.0330543 0.101481 0)
(-0.0333829 0.0892707 0)
(-0.0336552 0.0774695 0)
(-0.0338741 0.065967 0)
(-0.0340413 0.0546682 0)
(-0.0341603 0.0434963 0)
(-0.0342353 0.0323888 0)
(-0.0342709 0.0212914 0)
(-0.034271 0.0101533 0)
(-0.0342386 -0.00107685 0)
(-0.0341752 -0.0124526 0)
(-0.0340801 -0.0240314 0)
(-0.0339485 -0.0358726 0)
(-0.0337706 -0.0480332 0)
(-0.0335282 -0.060562 0)
(-0.0331938 -0.0734898 0)
(-0.0327312 -0.0868201 0)
(-0.0321026 -0.100528 0)
(-0.0312836 -0.114588 0)
(-0.0302869 -0.129044 0)
(-0.0291903 -0.144159 0)
(-0.0281513 -0.160652 0)
(-0.0273468 -0.179908 0)
(-0.0267628 -0.203731 0)
(-0.0259711 -0.233478 0)
(-0.023518 -0.267306 0)
(-0.0195502 -0.287042 0)
(-0.00633581 -0.262613 0)
(-0.000983075 0.124585 0)
(-0.00441343 0.165229 0)
(-0.00876644 0.183413 0)
(-0.0128643 0.195204 0)
(-0.0149358 0.198262 0)
(-0.0172031 0.194113 0)
(-0.0183633 0.183811 0)
(-0.0193209 0.17063 0)
(-0.0201447 0.156413 0)
(-0.0207638 0.142042 0)
(-0.0212815 0.128041 0)
(-0.021723 0.114633 0)
(-0.0220929 0.101833 0)
(-0.0224032 0.0895626 0)
(-0.0226573 0.0777077 0)
(-0.0228627 0.0661565 0)
(-0.0230271 0.0548148 0)
(-0.0231593 0.0436061 0)
(-0.0232681 0.0324681 0)
(-0.0233614 0.021346 0)
(-0.0234459 0.0101879 0)
(-0.0235268 -0.00105904 0)
(-0.0236072 -0.0124502 0)
(-0.0236883 -0.0240457 0)
(-0.023768 -0.0359092 0)
(-0.0238394 -0.0481042 0)
(-0.0238876 -0.0606885 0)
(-0.0238882 -0.0737033 0)
(-0.0238062 -0.08716 0)
(-0.0236003 -0.101032 0)
(-0.0232368 -0.115273 0)
(-0.0227118 -0.129881 0)
(-0.0220834 -0.145046 0)
(-0.021493 -0.161408 0)
(-0.0211263 -0.180361 0)
(-0.0210383 -0.203995 0)
(-0.020976 -0.234206 0)
(-0.0196728 -0.270139 0)
(-0.017226 -0.294392 0)
(-0.00547135 -0.275979 0)
(0.000929922 0.125564 0)
(-0.000699448 0.168559 0)
(-0.00316066 0.186498 0)
(-0.0054267 0.197382 0)
(-0.00640436 0.199989 0)
(-0.00770394 0.195424 0)
(-0.0083179 0.184891 0)
(-0.00897126 0.171501 0)
(-0.00959641 0.157107 0)
(-0.0101092 0.142608 0)
(-0.010562 0.128511 0)
(-0.0109542 0.115023 0)
(-0.0112814 0.102155 0)
(-0.0115501 0.0898256 0)
(-0.0117673 0.0779215 0)
(-0.011945 0.0663318 0)
(-0.0120963 0.0549623 0)
(-0.0122346 0.0437367 0)
(-0.0123726 0.0325916 0)
(-0.012521 0.0214709 0)
(-0.0126889 0.0103212 0)
(-0.0128832 -0.000912258 0)
(-0.0131085 -0.0122871 0)
(-0.0133677 -0.0238656 0)
(-0.0136606 -0.0357153 0)
(-0.0139831 -0.0479052 0)
(-0.0143243 -0.0605008 0)
(-0.0146653 -0.0735542 0)
(-0.0149749 -0.0870878 0)
(-0.0152126 -0.101079 0)
(-0.0153405 -0.115467 0)
(-0.0153411 -0.130211 0)
(-0.0152534 -0.145427 0)
(-0.0151992 -0.161668 0)
(-0.0153638 -0.1803 0)
(-0.0158673 -0.203645 0)
(-0.0165571 -0.234084 0)
(-0.0162875 -0.271496 0)
(-0.0150798 -0.299992 0)
(-0.00459596 -0.287032 0)
(0.00212723 0.124265 0)
(0.0028541 0.169667 0)
(0.00232398 0.187745 0)
(0.00177534 0.198216 0)
(0.00189341 0.200708 0)
(0.00158069 0.19599 0)
(0.0014876 0.185473 0)
(0.00115525 0.172077 0)
(0.000752585 0.15763 0)
(0.000373883 0.143071 0)
(1.38062e-05 0.128909 0)
(-0.00030324 0.115353 0)
(-0.000563824 0.102423 0)
(-0.000771929 0.0900405 0)
(-0.000937075 0.0780964 0)
(-0.00107512 0.0664816 0)
(-0.00120385 0.0551026 0)
(-0.00134095 0.0438821 0)
(-0.00150247 0.0327553 0)
(-0.00170204 0.021664 0)
(-0.00195082 0.0105525 0)
(-0.00225749 -0.000636 0)
(-0.00262836 -0.0119613 0)
(-0.00306761 -0.023488 0)
(-0.00357654 -0.0352867 0)
(-0.00415332 -0.047431 0)
(-0.00479173 -0.0599938 0)
(-0.00547784 -0.073037 0)
(-0.00618571 -0.0865927 0)
(-0.00688255 -0.100646 0)
(-0.00752983 -0.11513 0)
(-0.00809799 -0.129974 0)
(-0.0086086 -0.145227 0)
(-0.00916209 -0.16135 0)
(-0.00993524 -0.179654 0)
(-0.0111035 -0.202629 0)
(-0.0126091 -0.233175 0)
(-0.0133056 -0.271969 0)
(-0.0134737 -0.304641 0)
(-0.00391922 -0.297369 0)
(0.00341537 0.120847 0)
(0.00638312 0.168663 0)
(0.00769178 0.187325 0)
(0.00875493 0.197712 0)
(0.0100258 0.20025 0)
(0.0106356 0.195896 0)
(0.0110892 0.185629 0)
(0.0111226 0.17236 0)
(0.0109688 0.157964 0)
(0.0107515 0.143404 0)
(0.0105108 0.129209 0)
(0.0102908 0.115604 0)
(0.0101143 0.10262 0)
(0.0099818 0.0901921 0)
(0.00988176 0.0782189 0)
(0.00979467 0.0665947 0)
(0.00969846 0.0552264 0)
(0.00957137 0.0440352 0)
(0.00939389 0.0329536 0)
(0.0091495 0.0219211 0)
(0.00882472 0.0108791 0)
(0.00840877 -0.00023161 0)
(0.00789375 -0.0114729 0)
(0.00727437 -0.022912 0)
(0.00654735 -0.0346215 0)
(0.00571156 -0.0466783 0)
(0.00476997 -0.0591612 0)
(0.00373291 -0.0721403 0)
(0.00261767 -0.0856606 0)
(0.00144835 -0.0997158 0)
(0.000260916 -0.114236 0)
(-0.000910751 -0.129126 0)
(-0.00207192 -0.144386 0)
(-0.00329802 -0.160379 0)
(-0.00474943 -0.178344 0)
(-0.00663727 -0.20088 0)
(-0.00900655 -0.23138 0)
(-0.0105445 -0.271208 0)
(-0.0120147 -0.30792 0)
(-0.00322185 -0.306035 0)
(0.00483633 0.114694 0)
(0.00992961 0.165521 0)
(0.0129675 0.185247 0)
(0.0155273 0.195898 0)
(0.0179393 0.198769 0)
(0.0194994 0.195038 0)
(0.0205543 0.185312 0)
(0.0209838 0.172314 0)
(0.0211059 0.15808 0)
(0.0210799 0.143585 0)
(0.0209838 0.129392 0)
(0.0208812 0.115753 0)
(0.0208059 0.102727 0)
(0.0207635 0.0902662 0)
(0.0207414 0.0782776 0)
(0.0207172 0.0666611 0)
(0.0206646 0.0553242 0)
(0.020558 0.0441867 0)
(0.0203742 0.0331784 0)
(0.0200935 0.0222352 0)
(0.0197 0.0112959 0)
(0.0191806 0.000298189 0)
(0.0185254 -0.0108227 0)
(0.0177272 -0.0221362 0)
(0.0167807 -0.033717 0)
(0.0156826 -0.0456451 0)
(0.0144335 -0.058002 0)
(0.0130377 -0.0708628 0)
(0.011502 -0.084282 0)
(0.00984815 -0.0982676 0)
(0.00810365 -0.112754 0)
(0.00629612 -0.127631 0)
(0.0044357 -0.142854 0)
(0.0024784 -0.158696 0)
(0.000282628 -0.176304 0)
(-0.00239109 -0.198357 0)
(-0.00570702 -0.228765 0)
(-0.00800273 -0.269531 0)
(-0.0108943 -0.310333 0)
(-0.00261954 -0.314145 0)
(0.00623462 0.106275 0)
(0.0134271 0.160328 0)
(0.0181517 0.181593 0)
(0.0221231 0.192829 0)
(0.0257943 0.196159 0)
(0.0280459 0.193366 0)
(0.0298409 0.184557 0)
(0.0307478 0.17193 0)
(0.0311924 0.157947 0)
(0.0313976 0.143582 0)
(0.0314777 0.12943 0)
(0.0315186 0.115783 0)
(0.0315658 0.102731 0)
(0.0316301 0.0902493 0)
(0.0317 0.0782595 0)
(0.0317514 0.066668 0)
(0.0317548 0.0553841 0)
(0.0316806 0.0443257 0)
(0.0315019 0.0334194 0)
(0.0311955 0.0225977 0)
(0.0307425 0.0117956 0)
(0.0301272 0.000947802 0)
(0.0293372 -0.0100139 0)
(0.0283634 -0.0211607 0)
(0.0271983 -0.0325691 0)
(0.0258364 -0.0443215 0)
(0.0242739 -0.0565028 0)
(0.0225089 -0.0691931 0)
(0.0205451 -0.0824512 0)
(0.0183931 -0.0962911 0)
(0.0160657 -0.110658 0)
(0.0135919 -0.125447 0)
(0.0109893 -0.140578 0)
(0.00824716 -0.156239 0)
(0.00524622 -0.173467 0)
(0.00172725 -0.194987 0)
(-0.00260988 -0.225235 0)
(-0.00556902 -0.266876 0)
(-0.0100411 -0.311415 0)
(-0.00175645 -0.321086 0)
(0.00754209 0.0955518 0)
(0.0168182 0.153069 0)
(0.0231973 0.176379 0)
(0.0285084 0.188522 0)
(0.0332132 0.192792 0)
(0.0364869 0.19072 0)
(0.0389473 0.183136 0)
(0.0404276 0.171127 0)
(0.0412478 0.157515 0)
(0.0417306 0.143355 0)
(0.0420296 0.129293 0)
(0.0422483 0.115669 0)
(0.0424447 0.102611 0)
(0.0426373 0.0901247 0)
(0.0428173 0.0781499 0)
(0.0429603 0.0666022 0)
(0.0430345 0.0553932 0)
(0.043007 0.0444398 0)
(0.042847 0.0336652 0)
(0.0425278 0.0229978 0)
(0.0420269 0.0123688 0)
(0.0413257 0.00170948 0)
(0.0404086 -0.00905173 0)
(0.0392642 -0.0199885 0)
(0.0378822 -0.0311788 0)
(0.0362542 -0.0427065 0)
(0.0343731 -0.0546573 0)
(0.0322328 -0.0671135 0)
(0.0298282 -0.0801408 0)
(0.0271548 -0.0937621 0)
(0.0242209 -0.10793 0)
(0.0210486 -0.122541 0)
(0.0176571 -0.137505 0)
(0.014074 -0.152946 0)
(0.0102112 -0.16978 0)
(0.00577386 -0.190743 0)
(0.000338097 -0.22081 0)
(-0.00320744 -0.263399 0)
(-0.00926399 -0.311585 0)
(-0.00105216 -0.327644 0)
(0.00869418 0.0826163 0)
(0.0199902 0.14385 0)
(0.0279982 0.169696 0)
(0.0345929 0.183061 0)
(0.040258 0.188411 0)
(0.0446342 0.187269 0)
(0.0477753 0.180973 0)
(0.0499544 0.169842 0)
(0.0512484 0.156727 0)
(0.0520807 0.142853 0)
(0.0526577 0.128937 0)
(0.053103 0.115374 0)
(0.0534879 0.102339 0)
(0.0538401 0.0898704 0)
(0.0541557 0.0779306 0)
(0.0544117 0.0664471 0)
(0.0545756 0.055336 0)
(0.054612 0.0445139 0)
(0.054487 0.0339012 0)
(0.0541703 0.023422 0)
(0.0536354 0.0130035 0)
(0.0528607 0.00257331 0)
(0.0518271 -0.00794383 0)
(0.0505195 -0.0186238 0)
(0.0489251 -0.0295463 0)
(0.0470313 -0.0407964 0)
(0.0448267 -0.0524604 0)
(0.0422994 -0.0646203 0)
(0.0394357 -0.077341 0)
(0.0362227 -0.090653 0)
(0.0326537 -0.104526 0)
(0.0287406 -0.11887 0)
(0.0245115 -0.133589 0)
(0.0200295 -0.148754 0)
(0.0152312 -0.16517 0)
(0.00979763 -0.185564 0)
(0.00322383 -0.215417 0)
(-0.000841584 -0.258966 0)
(-0.0086351 -0.310533 0)
(-0.000129232 -0.333374 0)
(0.00951569 0.0675412 0)
(0.0227787 0.132603 0)
(0.0323279 0.161492 0)
(0.0401856 0.176446 0)
(0.046853 0.182989 0)
(0.0522132 0.183069 0)
(0.0562653 0.177911 0)
(0.0592139 0.167929 0)
(0.0611179 0.155484 0)
(0.0624094 0.141998 0)
(0.063352 0.128298 0)
(0.0640968 0.114848 0)
(0.0647294 0.101874 0)
(0.0652882 0.0894536 0)
(0.0657767 0.0775747 0)
(0.0661761 0.0661801 0)
(0.0664551 0.0551927 0)
(0.0665774 0.0445302 0)
(0.0665071 0.0341107 0)
(0.0662108 0.0238547 0)
(0.0656581 0.0136857 0)
(0.0648244 0.00352713 0)
(0.0636866 -0.00670003 0)
(0.0622255 -0.0170735 0)
(0.0604243 -0.0276743 0)
(0.058266 -0.0385885 0)
(0.0557331 -0.0499012 0)
(0.0528071 -0.0616932 0)
(0.0494656 -0.0740289 0)
(0.0456838 -0.0869429 0)
(0.0414418 -0.100415 0)
(0.0367473 -0.114382 0)
(0.0316242 -0.128764 0)
(0.0261706 -0.143597 0)
(0.0203441 -0.15956 0)
(0.0138315 -0.179365 0)
(0.00609089 -0.208996 0)
(0.00155495 -0.253666 0)
(-0.00826415 -0.308743 0)
(0.00074769 -0.338881 0)
(0.00973302 0.0507632 0)
(0.024821 0.119555 0)
(0.0359092 0.151837 0)
(0.0450499 0.1687 0)
(0.0527634 0.176522 0)
(0.0591217 0.177865 0)
(0.0641795 0.173965 0)
(0.068029 0.165248 0)
(0.0707147 0.153649 0)
(0.0726252 0.14068 0)
(0.0740644 0.127286 0)
(0.0752152 0.114016 0)
(0.0761822 0.101157 0)
(0.0770172 0.0888266 0)
(0.077734 0.0770441 0)
(0.0783208 0.0657703 0)
(0.0787503 0.0549374 0)
(0.0789879 0.0444661 0)
(0.0789969 0.034274 0)
(0.0787426 0.0242783 0)
(0.0781908 0.0143995 0)
(0.0773145 0.00455718 0)
(0.0760861 -0.00533141 0)
(0.0744815 -0.015345 0)
(0.0724795 -0.0255658 0)
(0.070057 -0.0360799 0)
(0.0671893 -0.0469701 0)
(0.0638495 -0.0583149 0)
(0.0600053 -0.070175 0)
(0.0556206 -0.0825891 0)
(0.0506632 -0.0955514 0)
(0.0451344 -0.109027 0)
(0.0390575 -0.122961 0)
(0.0325557 -0.13739 0)
(0.0256168 -0.152867 0)
(0.0179499 -0.172038 0)
(0.00896416 -0.201388 0)
(0.00398409 -0.247261 0)
(-0.00810969 -0.305997 0)
(0.00188007 -0.343755 0)
(0.00848729 0.0328832 0)
(0.0256167 0.104476 0)
(0.0382977 0.140479 0)
(0.0488365 0.159742 0)
(0.0576996 0.169052 0)
(0.0650977 0.171611 0)
(0.0712437 0.168986 0)
(0.0761548 0.161607 0)
(0.0798249 0.151023 0)
(0.0825644 0.138725 0)
(0.084684 0.12576 0)
(0.0863938 0.112766 0)
(0.0878207 0.100095 0)
(0.0890334 0.0879167 0)
(0.0900596 0.0762816 0)
(0.090898 0.0651725 0)
(0.0915288 0.0545342 0)
(0.091922 0.0442926 0)
(0.0920427 0.0343666 0)
(0.091857 0.0246718 0)
(0.0913283 0.0151272 0)
(0.0904273 0.00564861 0)
(0.0891224 -0.00384916 0)
(0.0873839 -0.0134454 0)
(0.0851856 -0.0232226 0)
(0.0824972 -0.0332656 0)
(0.079285 -0.0436536 0)
(0.075512 -0.0544617 0)
(0.0711351 -0.0657465 0)
(0.0661072 -0.0775509 0)
(0.0603854 -0.0898826 0)
(0.0539671 -0.102745 0)
(0.0468735 -0.116113 0)
(0.039249 -0.130047 0)
(0.031099 -0.145 0)
(0.0221999 -0.163526 0)
(0.0119257 -0.192572 0)
(0.00643314 -0.239657 0)
(-0.00831534 -0.302564 0)
(0.00317456 -0.34828 0)
(0.00459887 0.0166888 0)
(0.024285 0.087978 0)
(0.0390516 0.127392 0)
(0.0511819 0.149407 0)
(0.0613244 0.160501 0)
(0.0698306 0.164259 0)
(0.0771336 0.162833 0)
(0.0832783 0.156807 0)
(0.0881649 0.147378 0)
(0.0919882 0.135925 0)
(0.0950259 0.123539 0)
(0.0975003 0.110944 0)
(0.0995594 0.098565 0)
(0.101292 0.086623 0)
(0.102742 0.0752066 0)
(0.103924 0.0643231 0)
(0.104828 0.0539328 0)
(0.105433 0.0439699 0)
(0.10571 0.0343572 0)
(0.105627 0.0250101 0)
(0.105149 0.0158487 0)
(0.104243 0.00678532 0)
(0.102876 -0.00226499 0)
(0.101011 -0.0113806 0)
(0.0986185 -0.0206437 0)
(0.0956587 -0.030137 0)
(0.0920879 -0.0399338 0)
(0.0878573 -0.0501052 0)
(0.0829129 -0.0607036 0)
(0.0771972 -0.0717785 0)
(0.0706595 -0.0833523 0)
(0.0632951 -0.0954723 0)
(0.0551226 -0.10815 0)
(0.046304 -0.121491 0)
(0.0368477 -0.135872 0)
(0.0266863 -0.153758 0)
(0.015093 -0.182475 0)