# vtk DataFile Version 2.0
tracks
ASCII
DATASET POLYDATA
POINTS 12065 float
-0.0206 0.000999956 1e-05 -0.02058 0.000999959 1e-05 -0.02056 0.000999965 1e-05 -0.02054 0.000999974
1e-05 -0.02052 0.000999985 1e-05 -0.0205 0.001 1e-05 -0.0202034 0.00100022 1e-05
-0.0199069 0.00100067 1e-05 -0.0196103 0.00100132 1e-05 -0.0193137 0.00100219 1e-05 -0.0190172
0.00100326 1e-05 -0.0187132 0.00100466 1e-05 -0.0184093 0.00100588 1e-05 -0.0181054 0.0010071
1e-05 -0.0178015 0.00100832 1e-05 -0.0174976 0.00100953 1e-05 -0.0172058 0.00101083 1e-05
-0.016914 0.00101193 1e-05 -0.0166222 0.00101303 1e-05 -0.0163305 0.00101413 1e-05 -0.0160387
0.00101522 1e-05 -0.0157586 0.00101636 1e-05 -0.0154784 0.00101744 1e-05 -0.0151983 0.00101856
1e-05 -0.0149182 0.00101971 1e-05 -0.0146381 0.0010209 1e-05 -0.0143746 0.00102209 1e-05
-0.0141112 0.00102327 1e-05 -0.0138477 0.00102449 1e-05 -0.0135843 0.00102574 1e-05 -0.0133618
0.00102682 1e-05 -0.0133481 0.00102688 1e-05 -0.0133345 0.00102695 1e-05 -0.0133208 0.00102702
1e-05 -0.0133071 0.00102709 1e-05 -0.0132934 0.00102716 1e-05 -0.0130353 0.00102844 1e-05
-0.0127771 0.00102975 1e-05 -0.0125189 0.00103107 1e-05 -0.0122607 0.0010324 1e-05 -0.0120025
0.00103375 1e-05 -0.0117547 0.00103506 1e-05 -0.0115068 0.00103638 1e-05 -0.0112589 0.0010377
1e-05 -0.0110111 0.00103902 1e-05 -0.0107632 0.00104035 1e-05 -0.0105252 0.00104163 1e-05
-0.0102873 0.00104291 1e-05 -0.0100493 0.00104419 1e-05 -0.00981133 0.00104547 1e-05 -0.00957337
0.00104675 1e-05 -0.00934491 0.00104797 1e-05 -0.00911645 0.00104919 1e-05 -0.008888 0.00105041
1e-05 -0.00865954 0.00105163 1e-05 -0.00843108 0.00105284 1e-05 -0.00821175 0.001054 1e-05
-0.00799242 0.00105516 1e-05 -0.00777309 0.00105631 1e-05 -0.00755376 0.00105746 1e-05 -0.00733443
0.00105861 1e-05 -0.00712387 0.0010597 1e-05 -0.0069133 0.00106079 1e-05 -0.00670273 0.00106188
1e-05 -0.00649216 0.00106296 1e-05 -0.0062816 0.00106404 1e-05 -0.00607944 0.00106507 1e-05
-0.00587729 0.0010661 1e-05 -0.00567514 0.00106712 1e-05 -0.00547298 0.00106814 1e-05 -0.00527083
0.00106915 1e-05 -0.00507675 0.00107012 1e-05 -0.00488267 0.00107109 1e-05 -0.0046886 0.00107205
1e-05 -0.00449452 0.00107301 1e-05 -0.00430044 0.00107397 1e-05 -0.00411412 0.00107487 1e-05
-0.0039278 0.00107578 1e-05 -0.00374147 0.00107669 1e-05 -0.00355515 0.0010776 1e-05 -0.00336883
0.0010785 1e-05 -0.00318995 0.00107936 1e-05 -0.00301107 0.00108022 1e-05 -0.00283219 0.00108107
1e-05 -0.00265331 0.00108193 1e-05 -0.00247443 0.00108279 1e-05 -0.0023027 0.0010836 1e-05
-0.00213097 0.00108442 1e-05 -0.00195924 0.00108524 1e-05 -0.0017875 0.00108605 1e-05 -0.00161577
0.00108687 1e-05 -0.0014509 0.00108765 1e-05 -0.00128603 0.00108843 1e-05 -0.00112116 0.00108921
1e-05 -0.000956289 0.00109 1e-05 -0.000791418 0.00109079 1e-05 -0.000633135 0.00109154 1e-05
-0.000474851 0.0010923 1e-05 -0.000316567 0.00109306 1e-05 -0.000158284 0.00109383 1e-05 0
0.00109459 1e-05 0.000105677 0.0010951 1e-05 0.000211355 0.00109561 1e-05 0.000317032 0.00109612
1e-05 0.00042271 0.00109662 1e-05 0.000528387 0.00109713 1e-05 0.000634886 0.00109763 1e-05
0.000741385 0.00109813 1e-05 0.000847885 0.00109862 1e-05 0.000954384 0.00109912 1e-05 0.00106088
0.00109961 1e-05 0.00116821 0.00110009 1e-05 0.00127554 0.00110058 1e-05 0.00138286 0.00110105
1e-05 0.00149019 0.00110152 1e-05 0.00159752 0.00110198 1e-05 0.00170568 0.00110244 1e-05
0.00181384 0.00110289 1e-05 0.001922 0.00110334 1e-05 0.00203016 0.00110377 1e-05 0.00213833
0.0011042 1e-05 0.00224733 0.00110461 1e-05 0.00235633 0.00110503 1e-05 0.00246533 0.00110543
1e-05 0.00257434 0.00110582 1e-05 0.00268334 0.00110621 1e-05 0.00279319 0.00110658 1e-05
0.00290304 0.00110696 1e-05 0.00301289 0.00110732 1e-05 0.00312274 0.00110768 1e-05 0.00323259
0.00110803 1e-05 0.00334329 0.00110836 1e-05 0.003454 0.0011087 1e-05 0.0035647 0.00110903
1e-05 0.0036754 0.00110935 1e-05 0.00378611 0.00110966 1e-05 0.00389767 0.00110996 1e-05
0.00400924 0.00111026 1e-05 0.0041208 0.00111055 1e-05 0.00423237 0.00111083 1e-05 0.00434393
0.0011111 1e-05 0.00445636 0.00111137 1e-05 0.00456879 0.00111163 1e-05 0.00468123 0.00111188
1e-05 0.00479366 0.00111212 1e-05 0.00490609 0.00111236 1e-05 0.0050194 0.00111258 1e-05
0.0051327 0.00111281 1e-05 0.00524601 0.00111302 1e-05 0.00535932 0.00111323 1e-05 0.00547262
0.00111343 1e-05 0.00558681 0.00111361 1e-05 0.005701 0.0011138 1e-05 0.00581518 0.00111398
1e-05 0.00592937 0.00111414 1e-05 0.00604356 0.0011143 1e-05 0.00615863 0.00111446 1e-05
0.00627371 0.0011146 1e-05 0.00638878 0.00111474 1e-05 0.00650386 0.00111487 1e-05 0.00661893
0.001115 1e-05 0.0067349 0.00111511 1e-05 0.00685087 0.00111522 1e-05 0.00696684 0.00111532
1e-05 0.00708281 0.00111541 1e-05 0.00719878 0.0011155 1e-05 0.00731384 0.00111557 1e-05
0.0074289 0.00111564 1e-05 0.00754396 0.0011157 1e-05 0.00765902 0.00111576 1e-05 0.00776763
0.0011158 1e-05 0.00777073 0.0011158 1e-05 0.00777383 0.0011158 1e-05 0.00777693 0.0011158
1e-05 0.00778003 0.0011158 1e-05 0.00778313 0.00111581 1e-05 0.00790091 0.00111584 1e-05
0.00801869 0.00111587 1e-05 0.00813647 0.0011159 1e-05 0.00825425 0.00111591 1e-05 0.00837203
0.00111592 1e-05 0.00849073 0.00111591 1e-05 0.00860942 0.0011159 1e-05 0.00872812 0.00111588
1e-05 0.00884682 0.00111586 1e-05 0.00896551 0.00111582 1e-05 0.00908513 0.00111577 1e-05
0.00920475 0.00111572 1e-05 0.00932437 0.00111566 1e-05 0.00944398 0.00111559 1e-05 0.0095636
0.00111551 1e-05 0.00968415 0.00111542 1e-05 0.0098047 0.00111532 1e-05 0.00992525 0.00111522
1e-05 0.0100458 0.00111511 1e-05 0.0101663 0.00111499 1e-05 0.0102878 0.00111485 1e-05
0.0104093 0.00111471 1e-05 0.0105308 0.00111456 1e-05 0.0106523 0.0011144 1e-05 0.0107738
0.00111424 1e-05 0.0108962 0.00111405 1e-05 0.0110186 0.00111386 1e-05 0.0111411 0.00111367
1e-05 0.0112635 0.00111347 1e-05 0.0113859 0.00111326 1e-05 0.0115093 0.00111302 1e-05
0.0116327 0.00111279 1e-05 0.0117561 0.00111255 1e-05 0.0118795 0.0011123 1e-05 0.0120028
0.00111204 1e-05 0.0121272 0.00111175 1e-05 0.0122515 0.00111147 1e-05 0.0123759 0.00111118
1e-05 0.0125002 0.00111089 1e-05 0.0126245 0.00111058 1e-05 0.0127498 0.00111025 1e-05
0.0128752 0.00110992 1e-05 0.0130005 0.00110958 1e-05 0.0131258 0.00110923 1e-05 0.0132511
0.00110887 1e-05 0.0133774 0.00110849 1e-05 0.0135036 0.00110811 1e-05 0.0136299 0.00110772
1e-05 0.0137562 0.00110732 1e-05 0.0138825 0.00110691 1e-05 0.0140098 0.00110648 1e-05
0.014137 0.00110604 1e-05 0.0142643 0.0011056 1e-05 0.0143915 0.00110515 1e-05 0.0145188
0.00110468 1e-05 0.0146471 0.0011042 1e-05 0.0147753 0.00110371 1e-05 0.0149036 0.00110322
1e-05 0.0150318 0.00110271 1e-05 0.0151601 0.00110219 1e-05 0.0152893 0.00110166 1e-05
0.0154186 0.00110112 1e-05 0.0155478 0.00110057 1e-05 0.0156771 0.00110001 1e-05 0.0158063
0.00109944 1e-05 0.0159366 0.00109885 1e-05 0.0160668 0.00109826 1e-05 0.0161971 0.00109765
1e-05 0.0163273 0.00109703 1e-05 0.0164576 0.00109641 1e-05 0.0165889 0.00109577 1e-05
0.0167201 0.00109512 1e-05 0.0168514 0.00109446 1e-05 0.0169827 0.00109378 1e-05 0.0171139
0.0010931 1e-05 0.0172462 0.00109242 1e-05 0.0173785 0.00109171 1e-05 0.0175108 0.00109099
1e-05 0.0176431 0.00109026 1e-05 0.0177754 0.00108953 1e-05 0.0179087 0.00108878 1e-05
0.018042 0.00108802 1e-05 0.0181753 0.00108725 1e-05 0.0183087 0.00108646 1e-05 0.018442
0.00108567 1e-05 0.0185763 0.00108487 1e-05 0.0187107 0.00108406 1e-05 0.018845 0.00108322
1e-05 0.0189794 0.00108238 1e-05 0.0191137 0.00108153 1e-05 0.0192491 0.00108068 1e-05
0.0193845 0.00107981 1e-05 0.0195199 0.00107892 1e-05 0.0196553 0.00107802 1e-05 0.0197907
0.00107712 1e-05 0.0199272 0.00107621 1e-05 0.0200636 0.00107528 1e-05 0.0202001 0.00107433
1e-05 0.0203365 0.00107337 1e-05 0.020473 0.00107242 1e-05 0.0206105 0.00107146 1e-05
0.020748 0.00107047 1e-05 0.0208855 0.00106946 1e-05 0.021023 0.00106845 1e-05 0.0211606
0.00106743 1e-05 0.0212991 0.00106642 1e-05 0.0214377 0.00106538 1e-05 0.0215763 0.00106431
1e-05 0.0217149 0.00106324 1e-05 0.0218535 0.00106217 1e-05 0.0219931 0.0010611 1e-05
0.0221328 0.00106 1e-05 0.0222724 0.00105887 1e-05 0.0224121 0.00105774 1e-05 0.0225517
0.00105661 1e-05 0.0226925 0.00105548 1e-05 0.0228332 0.00105433 1e-05 0.022974 0.00105314
1e-05 0.0231147 0.00105195 1e-05 0.0232555 0.00105076 1e-05 0.0233973 0.00104958 1e-05
0.0235391 0.00104836 1e-05 0.023681 0.00104712 1e-05 0.0238228 0.00104587 1e-05 0.0239647
0.00104462 1e-05 0.0241076 0.00104338 1e-05 0.0242505 0.00104211 1e-05 0.0243935 0.0010408
1e-05 0.0245364 0.00103949 1e-05 0.0246794 0.00103819 1e-05 0.0248234 0.00103688 1e-05
0.0249675 0.00103555 1e-05 0.0251115 0.00103419 1e-05 0.0252556 0.00103281 1e-05 0.0253996
0.00103145 1e-05 0.0255448 0.00103008 1e-05 0.02569 0.00102869 1e-05 0.0258351 0.00102727
1e-05 0.0259803 0.00102584 1e-05 0.0261255 0.00102441 1e-05 0.0262718 0.00102298 1e-05
0.0264181 0.00102152 1e-05 0.0265644 0.00102004 1e-05 0.0267107 0.00101855 1e-05 0.026857
0.00101706 1e-05 0.0270044 0.00101557 1e-05 0.0271519 0.00101404 1e-05 0.0272993 0.0010125
1e-05 0.0274468 0.00101094 1e-05 0.0275942 0.00100939 1e-05 0.0277428 0.00100783 1e-05
0.0278914 0.00100624 1e-05 0.0280399 0.00100463 1e-05 0.0281885 0.00100301 1e-05 0.0283371
0.00100139 1e-05 0.0284869 0.000999762 1e-05 0.0286366 0.000998103 1e-05 0.0287863 0.000996429
1e-05 0.0289361 0.000994744 1e-05 0.0290858 0.000993053 1e-05 0.0292367 0.000991355 1e-05
0.0293876 0.000989625 1e-05 0.0295385 0.000987882 1e-05 0.0296894 0.000986129 1e-05 0.0298403
0.000984365 1e-05 0.0299924 0.000982594 1e-05 0.0301445 0.000980792 1e-05 0.0302966 0.000978979
1e-05 0.0304486 0.000977155 1e-05 0.0306007 0.000975319 1e-05 0.030754 0.000973472 1e-05
0.0309072 0.000971597 1e-05 0.0310605 0.000969711 1e-05 0.0312138 0.000967813 1e-05 0.031367
0.000965903 1e-05 0.0315215 0.000963977 1e-05 0.0316759 0.000962027 1e-05 0.0318304 0.000960064
1e-05 0.0319848 0.000958089 1e-05 0.0321393 0.000956102 1e-05 0.0322949 0.000954094 1e-05
0.0324506 0.000952065 1e-05 0.0326062 0.000950023 1e-05 0.0327619 0.000947968 1e-05 0.0329175
[...]
POINT_DATA 12065
FIELD attributes 4
age 1 12065 float
-9.99973e-06 -7.99975e-06 -5.99979e-06 -3.99984e-06 -1.99991e-06 0 2.96554e-05 5.93049e-05 8.89483e-05 0.000118586 0.000148217
0.000178568 0.000208911 0.00023924 0.000269556 0.000299858 0.000328932 0.000357998 0.000387053 0.000416096 0.000445127
0.000472987 0.000500841 0.000528688 0.000556529 0.000584362 0.000610534 0.000636702 0.000662866 0.000689027 0.000711118
0.000712476 0.000713833 0.00071519 0.000716547 0.000717904 0.000743535 0.000769164 0.000794792 0.000820419 0.000846045
0.000870645 0.000895246 0.000919848 0.00094445 0.000969054 0.000992675 0.0010163 0.00103992 0.00106355 0.00108718
0.00110987 0.00113256 0.00115526 0.00117795 0.00120066 0.00122246 0.00124426 0.00126606 0.00128787 0.00130968
0.00133063 0.00135158 0.00137253 0.00139349 0.00141445 0.00143459 0.00145472 0.00147486 0.001495 0.00151515
0.0015345 0.00155385 0.0015732 0.00159256 0.00161192 0.00163052 0.00164912 0.00166772 0.00168633 0.00170494
0.00172282 0.0017407 0.00175857 0.00177646 0.00179435 0.00181154 0.00182872 0.0018459 0.00186309 0.00188028
0.00189681 0.00191332 0.00192983 0.00194635 0.00196288 0.00197876 0.00199463 0.0020105 0.00202637 0.00204225
0.00205287 0.00206347 0.00207407 0.00208468 0.00209528 0.00210599 0.00211668 0.00212737 0.00213807 0.00214876
0.00215956 0.00217034 0.00218112 0.00219191 0.0022027 0.00221358 0.00222446 0.00223534 0.00224622 0.0022571
0.00226808 0.00227905 0.00229002 0.00230099 0.00231197 0.00232305 0.00233412 0.00234519 0.00235626 0.00236734
0.00237852 0.00238968 0.00240086 0.00241203 0.00242321 0.00243449 0.00244577 0.00245704 0.00246833 0.00247961
0.002491 0.00250238 0.00251377 0.00252516 0.00253655 0.00254805 0.00255954 0.00257104 0.00258255 0.00259406
0.00260567 0.00261728 0.00262889 0.00264051 0.00265214 0.00266387 0.0026756 0.00268734 0.00269908 0.00271083
0.00272269 0.00273454 0.00274641 0.00275828 0.00277016 0.00278195 0.00279375 0.00280556 0.00281737 0.00282853
0.00282885 0.00282917 0.00282949 0.00282981 0.00283013 0.00284224 0.00285436 0.00286649 0.00287863 0.00289078
0.00290304 0.0029153 0.00292757 0.00293986 0.00295215 0.00296456 0.00297697 0.00298939 0.00300182 0.00301426
0.00302683 0.00303939 0.00305196 0.00306454 0.00307714 0.00308987 0.00310259 0.00311532 0.00312806 0.00314081
0.00315371 0.00316659 0.00317949 0.00319239 0.00320531 0.00321838 0.00323143 0.00324449 0.00325756 0.00327065
0.0032839 0.00329712 0.00331036 0.00332361 0.00333687 0.0033503 0.0033637 0.00337711 0.00339054 0.00340398
0.0034176 0.00343118 0.00344477 0.00345838 0.00347201 0.00348582 0.00349958 0.00351336 0.00352716 0.00354098
0.00355498 0.00356894 0.00358292 0.00359691 0.00361092 0.00362512 0.00363928 0.00365345 0.00366764 0.00368186
0.00369625 0.00371062 0.00372499 0.00373938 0.0037538 0.0037684 0.00378297 0.00379755 0.00381214 0.00382677
0.00384157 0.00385636 0.00387114 0.00388593 0.00390077 0.00391579 0.00393079 0.00394577 0.00396078 0.00397583
0.00399106 0.00400627 0.00402147 0.0040367 0.00405196 0.0040674 0.00408283 0.00409825 0.00411369 0.00412917
0.00414483 0.00416048 0.00417611 0.00419177 0.00420748 0.00422335 0.00423922 0.00425508 0.00427096 0.00428689
0.00430298 0.00431908 0.00433516 0.00435127 0.00436742 0.00438374 0.00440005 0.00441637 0.0044327 0.00444907
0.00446562 0.00448216 0.0044987 0.00451526 0.00453186 0.00454863 0.0045654 0.00458218 0.00459896 0.00461579
0.00463279 0.00464979 0.0046668 0.00468382 0.00470087 0.0047181 0.00473533 0.00475257 0.00476982 0.00478711
0.00480457 0.00482203 0.00483951 0.00485699 0.00487451 0.00489221 0.0049099 0.00492761 0.00494534 0.00496309
0.00498102 0.00499895 0.0050169 0.00503486 0.00505285 0.00507101 0.00508918 0.00510736 0.00512557 0.00514379
0.00516219 0.0051806 0.00519902 0.00521746 0.00523592 0.00525456 0.00527321 0.00529187 0.00531056 0.00532926
0.00534813 0.00536702 0.00538593 0.00540485 0.0054238 0.00544292 0.00546205 0.0054812 0.00550037 0.00551955
0.00553891 0.00555829 0.00557768 0.0055971 0.00561653 0.00563613 0.00565576 0.0056754 0.00569505 0.00571473
0.00573458 0.00575445 0.00577434 0.00579425 0.00581417 0.00583 0.00584583 0.00586168 0.00587753 0.00589284
0.00589724 0.00590165 0.00590606 0.00591046 0.00591487 0.00593522 0.00595559 0.00597598 0.00599639 0.00601682
0.00603742 0.00605804 0.00607869 0.00609935 0.00612004 0.0061409 0.00616178 0.00618268 0.0062036 0.00622454
0.00624566 0.0062668 0.00628796 0.00630913 0.00633034 0.00635171 0.00637311 0.00639453 0.00641597 0.00643744
0.00645908 0.00648074 0.00650242 0.00652413 0.00654585 0.00656776 0.00658968 0.00661163 0.0066336 0.00665559
0.00667776 0.00669996 0.00672217 0.00674441 0.00676667 0.00678911 0.00681157 0.00683406 0.00685657 0.0068791
0.00690181 0.00692454 0.00694731 0.00697009 0.00699289 0.00701587 0.00703888 0.00706192 0.00708498 0.00710806
0.00713132 0.00715461 0.00717793 0.00720127 0.00722462 0.00724816 0.00727173 0.00729533 0.00731895 0.00734258
0.00736641 0.00739027 0.00741416 0.00743806 0.00746198 0.0074861 0.00751024 0.00753442 0.00755861 0.00758282
0.00760723 0.00763167 0.00765613 0.00768062 0.00770512 0.00772983 0.00775456 0.00777932 0.00780411 0.00782891
0.00785391 0.00787895 0.00790401 0.00792909 0.0079542 0.00797951 0.00800485 0.00803022 0.00805561 0.00808102
0.00810664 0.00813229 0.00815797 0.00818367 0.00820939 0.00823533 0.0082613 0.00828729 0.0083133 0.00833934
0.00835578 0.00837223 0.00838869 0.00840516 0.00842094 0.00843093 0.00844092 0.00845092 0.00846092 0.00847093
0.00849752 0.00852413 0.00855077 0.00857744 0.00860414 0.00863106 0.00865801 0.00868499 0.00871199 0.00873903
0.00876629 0.00879359 0.00882091 0.00884826 0.00887564 0.00890325 0.00893089 0.00895857 0.00898627 0.009014
0.00904196 0.00906996 0.00909799 0.00912606 0.00915415 0.00918247 0.00921083 0.00923923 0.00926766 0.00929612
0.00932481 0.00935354 0.00938231 0.00941112 0.00943995 0.00946902 0.00949813 0.00952729 0.00955648 0.00958569
0.00961514 0.00964464 0.00967419 0.00970377 0.00973337 0.00976323 0.00979313 0.00982307 0.00985305 0.00988305
0.00991331 0.00994363 0.00997397 0.0100044 0.0100348 0.0100655 0.0100962 0.010127 0.0101578 0.0101886
0.0102197 0.0102509 0.0102821 0.0103133 0.0103446 0.0103509 0.0103572 0.0103636 0.0103699 0.0103762
0.0104015 0.0104267 0.0104521 0.0104774 0.0105028 0.0105348 0.0105669 0.010599 0.0106311 0.0106633
0.0106958 0.0107283 0.0107609 0.0107935 0.0108262 0.0108592 0.0108922 0.0109253 0.0109584 0.0109916
0.0110251 0.0110586 0.0110922 0.0111259 0.0111596 0.0111936 0.0112276 0.0112618 0.0112959 0.0113302
0.0113647 0.0113993 0.011434 0.0114687 0.0115035 0.0115386 0.0115738 0.011609 0.0116443 0.0116797
0.0117153 0.0117511 0.0117869 0.0118228 0.0118587 0.0118689 0.0118792 0.0118894 0.0118996 0.0119097
0.0119358 0.011962 0.0119883 0.0120146 0.0120409 0.0120778 0.0121147 0.0121518 0.0121889 0.012226
0.0122636 0.0123012 0.0123388 0.0123766 0.0124144 0.0124526 0.0124908 0.0125292 0.0125676 0.0126061
0.012645 0.0126839 0.0127229 0.012762 0.0128012 0.0128408 0.0128805 0.0129202 0.01296 0.013
0.0130403 0.0130807 0.0131212 0.0131618 0.0132025 0.013226 0.0132496 0.0132732 0.0132968 0.0133196
0.0133374 0.0133553 0.0133732 0.0133911 0.0134091 0.013451 0.013493 0.0135351 0.0135773 0.0136196
0.0136623 0.0137051 0.0137481 0.0137911 0.0138343 0.0138778 0.0139215 0.0139654 0.0140093 0.0140533
0.0140978 0.0141424 0.0141872 0.014232 0.014277 0.0143225 0.014368 0.0144137 0.0144595 0.0145055
0.0145402 0.0145749 0.0146097 0.0146446 0.0146779 0.0146902 0.0147024 0.0147147 0.0147269 0.0147392
0.0147867 0.0148343 0.014882 0.0149299 0.0149779 0.0150265 0.0150752 0.015124 0.015173 0.0152221
0.0152718 0.0153216 0.0153715 0.0154216 0.0154719 0.0155228 0.0155737 0.0156249 0.0156762 0.0157277
0.0157798 0.015832 0.0158844 0.0159369 0.0159897 0.0159991 0.0160085 0.016018 0.0160274 0.0160367
0.0160808 0.016125 0.0161693 0.0162138 0.0162584 0.016313 0.0163679 0.0164229 0.0164781 0.0165335
0.0165896 0.0166458 0.0167022 0.0167589 0.0168157 0.0168732 0.0169309 0.0169888 0.0170469 0.0171052
0.0171642 0.0172235 0.0172829 0.0173425 0.0174024 0.0174101 0.0174177 0.0174254 0.0174331 0.0174407
0.0174937 0.017547 0.0176004 0.0176539 0.0177077 0.0177699 0.0178323 0.017895 0.0179579 0.018021
0.0180849 0.018149 0.0182134 0.018278 0.0183429 0.0184085 0.0184744 0.0185406 0.018607 0.0186737
0.0187258 0.0187781 0.0188306 0.0188832 0.0189347 0.0189505 0.0189664 0.0189822 0.0189981 0.019014
0.0190834 0.019153 0.0192229 0.0192931 0.0193636 0.0194349 0.0195065 0.0195784 0.0196506 0.0197231
0.0197964 0.01987 0.0199439 0.0200182 0.0200927 0.0201682 0.0202439 0.02032 0.0203964 0.0204731
0.0204915 0.02051 0.0205285 0.020547 0.0205655 0.020625 0.0206846 0.0207445 0.0208045 0.0208647
0.0209445 0.0210247 0.0211052 0.021186 0.0212672 0.0213494 0.0214318 0.0215147 0.0215978 0.0216813
0.0217659 0.0218507 0.0219359 0.0220215 0.0221075 0.0221627 0.022218 0.0222736 0.0223292 0.0223847
0.022417 0.0224493 0.0224816 0.022514 0.0225465 0.022636 0.0227258 0.022816 0.0229066 0.0229976
0.0230897 0.0231821 0.0232749 0.0233681 0.0234617 0.0235564 0.0236515 0.0237469 0.0238428 0.0239391
0.0240365 0.0241343 0.0242325 0.0243312 0.0244302 0.0244351 0.0244399 0.0244448 0.0244496 0.0244544
0.0245499 0.0246458 0.024742 0.0248385 0.0249354 0.0250385 0.0251419 0.0252458 0.02535 0.0254547
0.0255606 0.0256669 0.0257737 0.0258809 0.0259885 0.0260974 0.0262067 0.0263164 0.0264266 0.0265372
0.0265979 0.0266587 0.0267197 0.0267808 0.0268423 0.026894 0.0269458 0.0269976 0.0270496 0.0271017
0.0272166 0.0273321 0.0274479 0.0275642 0.0276809 0.027799 0.0279175 0.0280365 0.0281559 0.0282758
0.028397 0.0285187 0.0286408 0.0287634 0.0288865 0.029011 0.0291359 0.0292613 0.0293872 0.0295135
0.0295308 0.029548 0.0295653 0.0295826 0.0295999 0.0297107 0.0298218 0.0299333 0.0300451 0.0301573
0.0302883 0.0304199 0.0305519 0.0306843 0.0308172 0.0309515 0.0310864 0.0312217 0.0313576 0.0314938
0.0316315 0.0317697 0.0319084 0.0320476 0.0321872 0.0322935 0.0324001 0.032507 0.0326141 0.0327211
0.0327565 0.0327919 0.0328273 0.0328627 0.0328982 0.0330429 0.033188 0.0333336 0.0334797 0.0336264
0.0337745 0.0339232 0.0340724 0.0342221 0.0343723 0.0345239 0.0346762 0.034829 0.0349823 0.0351361
0.0352914 0.0354473 0.0356037 0.0357606 0.0359179 0.035925 0.035932 0.035939 0.035946 0.035953
0.0361051 0.0362577 0.0364107 0.0365642 0.0367182 0.0368808 0.037044 0.0372077 0.0373719 0.0375366
0.0377029 0.0378698 0.0380372 0.038205 0.0383734 0.0385434 0.038714 0.038885 0.0390565 0.0392285
0.0392286 0.0392287 0.0392288 0.0392289 0.039229 0.0394027 0.0395768 0.0397514 0.0399264 0.0401021
0.0402794 0.0404573 0.0406357 0.0408145 0.0409938 0.0411748 0.0413563 0.0415382 0.0417206 0.0419035
0.0420117 0.0421202 0.0422287 0.0423374 0.0424437 0.0425211 0.0425985 0.042676 0.0427535 0.0428312
0.0430192 0.0432077 0.0433965 0.0435858 0.0437754 0.0439667 0.0441585 0.0443506 0.0445431 0.0447359
0.0449008 0.045066 0.0452314 0.0453969 0.0455586 0.0455892 0.0456198 0.0456504 0.045681 0.0457116
0.0459091 0.0461068 0.0463047 0.0465028 0.0467013 0.0469012 0.0471015 0.0473019 0.0475026 0.0477033
0.0478823 0.0480614 0.0482406 0.0484198 0.0485983 0.0486218 0.0486453 0.0486689 0.0486924 0.0487159
0.0489202 0.0491245 0.0493288 0.0495331 0.0497373 0.0499429 0.0501486 0.0503542 0.0505598 0.050765
0.0509387 0.0511123 0.0512858 0.0514591 0.0516377 0.0516694 0.0517012 0.051733 0.0517647 0.0517965
0.0520037 0.0522107 0.0524174 0.0526238 0.0528296 0.0530367 0.0532436 0.0534501 0.0536562 0.0538616
0.0540512 0.0542406 0.0544295 0.0546181 0.0548251 0.054838 0.0548509 0.0548638 0.0548766 0.0548895
0.0550951 0.0553001 0.0555045 0.0557084 0.055911 0.0561148 0.0563179 0.0565204 0.0567222 0.0569227
0.0571244 0.0573254 0.0575257 0.057725 0.0579225 0.0580018 0.0580809 0.0581598 0.0582386 0.0583228
0.0584317 0.0585404 0.0586488 0.058757 0.0588646 0.0590574 0.0592491 0.0594396 0.0596288 0.0598164
0.0600103 0.060203 0.0603943 0.0605844 0.0607726 0.0607956 0.0608184 0.0608413 0.0608641 0.0608876
0.0610582 0.0612278 0.0613962 0.0615635 0.0617294 0.0619237 0.0621164 0.0623075 0.062497 0.0626847
0.0628781 0.0630699 0.0632599 0.0634481 0.0636346 0.0636888 0.0637428 0.0637967 0.0638505 0.0639085
0.0640436 0.0641778 0.0643111 0.0644435 0.0645749 0.0647652 0.0649536 0.0651402 0.0653249 0.0655079
0.0656962 0.0658826 0.066067 0.0662497 0.0664306 0.0666167 0.0668009 0.0669832 0.0671637 0.0673425
0.0674381 0.0675331 0.0676277 0.0677217 0.0678318 0.0679144 0.0679967 0.0680786 0.06816 0.0682412
0.0684228 0.0686026 0.0687805 0.0689567 0.0691312 0.0693107 0.0694884 0.0696642 0.0698382 0.0700108
0.0701883 0.070364 0.0705378 0.0707099 0.0708805 0.0710562 0.0712299 0.0714019 0.0715723 0.0717412
0.071915 0.072087 0.0722574 0.0724261 0.0725934 0.0727655 0.072936 0.0731048 0.0732721 0.0734379
0.0735943 0.0737493 0.073903 0.0740554 0.0742639 0.0742662 0.0742685 0.0742708 0.0742731 0.0742754
0.0744447 0.0746124 0.0747785 0.0749432 0.0751065 0.0752746 0.0754412 0.0756062 0.0757697 0.0759318
0.0760987 0.076264 0.0764278 0.0765901 0.0767511 0.0769172 0.0770817 0.0772446 0.077406 0.0775659
0.0777305 0.0778932 0.0780542 0.0782138 0.0783725 0.0785367 0.0786996 0.0788612 0.0790209 0.0791782
0.0793389 0.0794968 0.0796517 0.0798055 0.0799593 -9.99997e-06 -7.99997e-06 -5.99998e-06 -3.99998e-06 -1.99999e-06
0 2.96566e-05 5.93127e-05 8.89677e-05 0.000118621 0.000148273 0.000178656 0.000209037 0.000239415 0.000269789
0.000300159 0.00032931 0.000358456 0.000387597 0.000416733 0.000445864 0.000473826 0.000501784 0.000529736 0.000557683
0.000585626 0.000612448 0.000639266 0.00066608 0.000692889 0.000719694 0.000745424 0.00077115 0.000796872 0.00082259
0.000848304 0.000872987 0.000897666 0.000922342 0.000947014 0.000971683 0.000995363 0.00101904 0.00104271 0.00106638
0.00109005 0.00111277 0.00113548 0.0011582 0.00118091 0.00120361 0.00122541 0.0012472 0.001269 0.00129078
0.00131257 0.00133349 0.0013544 0.00137531 0.00139621 0.00141712 0.00143719 0.00145725 0.00147731 0.00149738
0.00151743 0.00153669 0.00155594 0.0015752 0.00159445 0.00161369 0.00163217 0.00165065 0.00166912 0.00168759
0.00170606 0.0017238 0.00174152 0.00175925 0.00177698 0.0017947 0.00181172 0.00182873 0.00184574 0.00186275
0.00187976 0.00189609 0.00191241 0.00192874 0.00194506 0.00196138 0.00197705 0.00199272 0.00200839 0.00202405
0.00203971 0.00205017 0.00206063 0.00207108 0.00208154 0.00209199 0.00210252 0.00211306 0.00212359 0.00213412
0.00214466 0.00215527 0.00216588 0.0021765 0.00218711 0.00219772 0.00220841 0.0022191 0.0022298 0.00224049
0.00225118 0.00226195 0.00227272 0.00228349 0.00229427 0.00230504 0.00231589 0.00232675 0.0023376 0.00234845
0.0023593 0.00237024 0.00238117 0.00239211 0.00240304 0.00241398 0.002425 0.00243602 0.00244703 0.00245805
0.00246907 0.00248017 0.00249127 0.00250237 0.00251347 0.00252457 0.00253576 0.00254695 0.00255813 0.00256932
0.0025805 0.00259177 0.00260304 0.00261431 0.00262559 0.00263686 0.00264821 0.00265957 0.00267093 0.00268228
0.00269364 0.00270508 0.00271653 0.00272797 0.00273942 0.00275086 0.00276239 0.00277392 0.00278545 0.00279698
0.00280851 0.00282013 0.00283175 0.00284337 0.00285499 0.00286661 0.00287832 0.00289003 0.00290174 0.00291345
0.00292516 0.00293696 0.00294875 0.00296055 0.00297235 0.00298415 0.00299604 0.00300793 0.00301982 0.00303171
0.00304359 0.00305558 0.00306756 0.00307954 0.00309152 0.0031035 0.00311557 0.00312764 0.00313971 0.00315179
0.00316386 0.00317603 0.00318819 0.00320036 0.00321252 0.00322469 0.00323694 0.0032492 0.00326146 0.00327372
0.00328598 0.00329833 0.00331069 0.00332304 0.00333539 0.00334774 0.00336019 0.00337264 0.00338509 0.00339754
0.00340998 0.00342253 0.00343507 0.00344761 0.00346016 0.0034727 0.00348534 0.00349798 0.00351062 0.00352326
0.0035359 0.00354864 0.00356137 0.00357411 0.00358685 0.00359959 0.00361242 0.00362526 0.00363809 0.00365093
0.00366376 0.00367669 0.00368963 0.00370256 0.00371549 0.00372843 0.00373701 0.00374559 0.00375418 0.00376276
0.0037713 0.00377576 0.00378022 0.00378468 0.00378913 0.00379359 0.00380672 0.00381986 0.00383299 0.00384612
0.00385925 0.00387249 0.00388572 0.00389896 0.00391219 0.00392542 0.00393876 0.0039521 0.00396543 0.00397877
0.0039921 0.00400554 0.00401898 0.00403241 0.00404585 0.00405929 0.00407283 0.00408637 0.00409991 0.00411345
0.004127 0.00414064 0.00415429 0.00416793 0.00418158 0.00419522 0.00420897 0.00422272 0.00423647 0.00425022
0.00426397 0.00427783 0.00429169 0.00430554 0.0043194 0.00433325 0.00434722 0.00436118 0.00437514 0.0043891
0.00440306 0.00441714 0.00443121 0.00444528 0.00445934 0.00447341 0.0044876 0.00450177 0.00451595 0.00453013
0.00454431 0.0045586 0.00457289 0.00458717 0.00460146 0.00461575 0.00463015 0.00464455 0.00465894 0.00467334
0.00468774 0.00470225 0.00471676 0.00473127 0.00474578 0.00476029 0.00477491 0.00478953 0.00480415 0.00481877
0.0048334 0.00484814 0.00486287 0.0048776 0.00489234 0.00490707 0.00492193 0.00493678 0.00495163 0.00496647
0.00498132 0.00499629 0.00501126 0.00502622 0.00504119 0.00505615 0.00507124 0.00508632 0.0051014 0.00511648
0.00513156 0.00514677 0.00516197 0.00517717 0.00519237 0.00520757 0.00522289 0.00523821 0.00525353 0.00526885
0.00528417 0.00529961 0.00531505 0.00533049 0.00534593 0.00536137 0.00537693 0.00539249 0.00540805 0.00542362
0.00543918 0.00545487 0.00547055 0.00548623 0.00550192 0.00551761 0.00553342 0.00554923 0.00556504 0.00558085
0.00559666 0.0056126 0.00562853 0.00564447 0.0056604 0.00567634 0.00569241 0.00570847 0.00572453 0.0057406
0.00575667 0.00577286 0.00578905 0.00580525 0.00582144 0.00583764 0.00583913 0.00584062 0.00584211 0.0058436
0.00584509 0.00585992 0.00587476 0.00588959 0.00590443 0.00591927 0.00593573 0.00595218 0.00596864 0.0059851
0.00600156 0.00601816 0.00603475 0.00605135 0.00606794 0.00608454 0.00610128 0.00611801 0.00613474 0.00615147
0.00616821 0.00618509 0.00620196 0.00621883 0.0062357 0.00625257 0.0062696 0.00628661 0.00630363 0.00632064
0.00633766 0.00635484 0.006372 0.00638915 0.00640631 0.00642348 0.00644081 0.00645812 0.00647542 0.00649272
0.00651004 0.00652752 0.00654499 0.00656243 0.00657988 0.00659736 0.006615 0.00663262 0.00665022 0.00666782
0.00668546 0.00670326 0.00672104 0.0067388 0.00675656 0.00677435 0.00679232 0.00681026 0.00682818 0.00684611
0.00686406 0.00688219 0.0069003 0.00691839 0.00693648 0.0069546 0.0069729 0.00699118 0.00700943 0.00702769
0.00704599 0.00706446 0.00708291 0.00710134 0.00711979 0.00713825 0.0071569 0.00717553 0.00719414 0.00721277
0.00723141 0.00725024 0.00726904 0.00728785 0.00730666 0.00732549 0.0073445 0.00736348 0.00738248 0.00740149
0.0074205 0.0074397 0.00745888 0.00747807 0.00749727 0.00751649 0.00753587 0.00755525 0.00757464 0.00759405
0.00761346 0.0076231 0.00763274 0.00764239 0.00765203 0.00766147 0.00767146 0.00768146 0.00769145 0.00770145
0.00771146 0.00773124 0.00775104 0.00777084 0.00779066 0.00781049 0.0078305 0.00785051 0.00787053 0.00789056
0.00791061 0.00793085 0.00795107 0.00797131 0.00799156 0.00801183 0.00803231 0.00805276 0.00807322 0.0080937
0.0081142 0.00813492 0.00815561 0.0081763 0.008197 0.00821775 0.00823871 0.00825965 0.00828058 0.00830151
0.0083225 0.00834372 0.00836491 0.00838608 0.00840727 0.00842851 0.00844998 0.00847142 0.00849285 0.0085143
0.0085358 0.00855753 0.00857923 0.00860093 0.00862264 0.0086444 0.00866639 0.00868837 0.00871034 0.00873233
0.00875437 0.00877663 0.00879888 0.00882114 0.00884342 0.00886573 0.00888827 0.0089108 0.00893335 0.00895593
0.00897853 0.00900135 0.00902418 0.00904704 0.00906991 0.00909282 0.00910037 0.00910792 0.00911548 0.00912304
0.00913048 0.00914609 0.00916171 0.00917734 0.00919299 0.00920865 0.00923208 0.00925552 0.009279 0.0093025
0.00932603 0.00934979 0.00937356 0.00939735 0.00942118 0.00944504 0.00946914 0.00949324 0.00951737 0.00954152
0.00956572 0.00959017 0.00961462 0.00963908 0.00966357 0.00968812 0.00971292 0.00973773 0.00976254 0.00978739
0.0098123 0.00983746 0.00986263 0.00988781 0.00991303 0.0099383 0.00996383 0.00998937 0.0100149 0.0100405
0.0100662 0.0100921 0.010118 0.010144 0.01017 0.010196 0.0102223 0.0102486 0.010275 0.0103014